* GENERATED BY CHARMM-GUI FF-Converter
* DATE:   08/30/26   14:23:33
*
     36903  EXT
         1         1  ASN       N              33.9604106278       34.2052089074       33.7772869158  PROA      1               0.0000000000
         2         1  ASN       HT1            33.1708516808       34.1954746733       33.0925012380  PROA      1               0.0000000000
         3         1  ASN       HT2            34.8084130388       33.7474018583       33.4033166636  PROA      1               0.0000000000
         4         1  ASN       HT3            34.2178819196       35.2214804259       33.9553242178  PROA      1               0.0000000000
         5         1  ASN       CA             33.6741432326       33.7855063577       35.1606513860  PROA      1               0.0000000000
         6         1  ASN       HA             32.6268654714       33.9412229840       35.3328791273  PROA      1               0.0000000000
         7         1  ASN       CB             34.1269474875       32.3164837937       35.4599980160  PROA      1               0.0000000000
         8         1  ASN       HB1            34.8132538128       32.2772789661       36.3340479781  PROA      1               0.0000000000
         9         1  ASN       HB2            34.6744379268       31.8709329743       34.6053375496  PROA      1               0.0000000000
        10         1  ASN       CG             32.9326293919       31.4278431064       35.7943436131  PROA      1               0.0000000000
        11         1  ASN       OD1            32.7044219525       31.0775914870       36.9485364136  PROA      1               0.0000000000
        12         1  ASN       ND2            32.1133154542       31.0591520169       34.7899137152  PROA      1               0.0000000000
        13         1  ASN       HD21           31.3842800202       30.4093676906       35.0094544567  PROA      1               0.0000000000
        14         1  ASN       HD22           32.3725892764       31.2209210104       33.8448238547  PROA      1               0.0000000000
        15         1  ASN       C              34.4106467313       34.8525141568       35.9968401773  PROA      1               0.0000000000
        16         1  ASN       OT1            34.6901006631       35.9631252874       35.4667964757  PROA      1               0.0000000000
        17         1  ASN       OT2            34.7123735475       34.5237085189       37.1625183091  PROA      1               0.0000000000
        18         2  ASN       N              32.4409923084       33.9731712620       38.2340819090  PROB      2               0.0000000000
        19         2  ASN       HT1            31.9875059103       34.9178849135       38.2271159371  PROB      2               0.0000000000
        20         2  ASN       HT2            31.8490388948       33.2036676411       37.8850009623  PROB      2               0.0000000000
        21         2  ASN       HT3            33.3303647733       34.1175754570       37.6651097459  PROB      2               0.0000000000
        22         2  ASN       CA             32.9907427881       33.7911256517       39.5693659315  PROB      2               0.0000000000
        23         2  ASN       HA             32.1186976107       33.7351493286       40.1926827112  PROB      2               0.0000000000
        24         2  ASN       CB             33.8492768618       32.4963347030       39.7466544709  PROB      2               0.0000000000
        25         2  ASN       HB1            34.6699852692       32.6742709744       40.4755308016  PROB      2               0.0000000000
        26         2  ASN       HB2            34.3253083225       32.1728563847       38.8016538305  PROB      2               0.0000000000
        27         2  ASN       CG             32.9806977139       31.3772867294       40.3272013229  PROB      2               0.0000000000
        28         2  ASN       OD1            33.1128535159       31.0033502071       41.4918292899  PROB      2               0.0000000000
        29         2  ASN       ND2            31.9872996331       30.8903545687       39.5560986281  PROB      2               0.0000000000
        30         2  ASN       HD21           31.4607521848       30.1439669494       39.9579747921  PROB      2               0.0000000000
        31         2  ASN       HD22           32.1370683665       30.9016174650       38.5633554600  PROB      2               0.0000000000
        32         2  ASN       C              33.6786984427       35.1311844479       39.9431392063  PROB      2               0.0000000000
        33         2  ASN       OT1            33.1942827558       36.1970017114       39.4838559606  PROB      2               0.0000000000
        34         2  ASN       OT2            34.5154747524       35.0912213094       40.8743862253  PROB      2               0.0000000000
        35         3  ARG       N              32.4627758457       34.6999647306       42.4014088964  PROC      3               0.0000000000
        36         3  ARG       HT1            31.8296094838       35.4977580804       42.6427553933  PROC      3               0.0000000000
        37         3  ARG       HT2            32.0332424820       33.9729269075       41.8208675744  PROC      3               0.0000000000
        38         3  ARG       HT3            33.2868166970       35.1483899076       41.8824803718  PROC      3               0.0000000000
        39         3  ARG       CA             33.0364671221       34.2338329425       43.6306989229  PROC      3               0.0000000000
        40         3  ARG       HA             32.2730494468       33.6505521800       44.0733051366  PROC      3               0.0000000000
        41         3  ARG       CB             34.3441521516       33.3970993231       43.5847666929  PROC      3               0.0000000000
        42         3  ARG       HB1            35.1143511062       33.9235120525       42.9792869524  PROC      3               0.0000000000
        43         3  ARG       HB2            34.1471990370       32.4106014079       43.1243769839  PROC      3               0.0000000000
        44         3  ARG       CG             34.8741798444       33.1882728913       45.0193925489  PROC      3               0.0000000000
        45         3  ARG       HG1            34.0286172198       32.8384114569       45.6356448068  PROC      3               0.0000000000
        46         3  ARG       HG2            35.1968954747       34.1880932889       45.4017585742  PROC      3               0.0000000000
        47         3  ARG       CD             36.0113012791       32.1970250831       45.2405530628  PROC      3               0.0000000000
        48         3  ARG       HD1            36.9181223508       32.5089449161       44.6759957871  PROC      3               0.0000000000
        49         3  ARG       HD2            35.7034963713       31.1872621228       44.9137382073  PROC      3               0.0000000000
        50         3  ARG       NE             36.3136841216       32.2348303940       46.7127394502  PROC      3               0.0000000000
        51         3  ARG       HE             36.5422133616       33.1322074516       47.0899005481  PROC      3               0.0000000000
        52         3  ARG       CZ             35.8820350473       31.3705213240       47.6248265883  PROC      3               0.0000000000
        53         3  ARG       NH1            35.3403409133       30.2107415517       47.3193372623  PROC      3               0.0000000000
        54         3  ARG       HH11           35.3370300245       29.9043614204       46.3773106319  PROC      3               0.0000000000
        55         3  ARG       HH12           34.9908140179       29.6465528207       48.0561133730  PROC      3               0.0000000000
        56         3  ARG       NH2            35.8842009248       31.7175979784       48.8916317671  PROC      3               0.0000000000
        57         3  ARG       HH21           35.7280012840       32.7032634243       49.0192208887  PROC      3               0.0000000000
        58         3  ARG       HH22           35.3165143099       31.1691019513       49.5049627404  PROC      3               0.0000000000
        59         3  ARG       C              33.1342604684       35.6054962397       44.2852294452  PROC      3               0.0000000000
        60         3  ARG       OT1            34.1518393156       36.3073007929       44.0981501226  PROC      3               0.0000000000
        61         3  ARG       OT2            32.0490287016       36.0008273332       44.8110232469  PROC      3               0.0000000000
        62         4  PRO       N              31.5348950468       33.8744372711       46.3204822522  PROD      4               0.0000000000
        63         4  PRO       HN1            30.9585424612       34.7027507595       46.3325457634  PROD      4               0.0000000000
        64         4  PRO       HN2            32.2884342552       34.1403097600       45.7014348260  PROD      4               0.0000000000
        65         4  PRO       CD             30.7914849930       32.6303994967       45.9203087739  PROD      4               0.0000000000
        66         4  PRO       HD1            30.6672922278       32.5467785410       44.8239318855  PROD      4               0.0000000000
        67         4  PRO       HD2            29.7923400779       32.6264585724       46.4094185001  PROD      4               0.0000000000
        68         4  PRO       CA             32.1703781129       33.6287849675       47.6183056608  PROD      4               0.0000000000
        69         4  PRO       HA             31.5180064870       34.1366231359       48.2838955010  PROD      4               0.0000000000
        70         4  PRO       CB             32.1319131721       32.1045699449       47.8043532270  PROD      4               0.0000000000
        71         4  PRO       HB1            31.3674924797       31.8624428987       48.5744822685  PROD      4               0.0000000000
        72         4  PRO       HB2            33.1035275896       31.6718888639       48.1081001392  PROD      4               0.0000000000
        73         4  PRO       CG             31.6483217735       31.5100141035       46.4887656530  PROD      4               0.0000000000
        74         4  PRO       HG1            32.4999928325       31.2624471982       45.8182320476  PROD      4               0.0000000000
        75         4  PRO       HG2            31.0475502495       30.5949033999       46.6555776307  PROD      4               0.0000000000
        76         4  PRO       C              33.5241548893       34.2846766111       47.7553674563  PROD      4               0.0000000000
        77         4  PRO       OT1            33.7944722632       35.3141700219       47.1252349355  PROD      4               0.0000000000
        78         4  PRO       OT2            34.2578099504       33.8531425685       48.6797980873  PROD      4               0.0000000000
        79         5  ASN       N              32.4978441332       34.9906251530       50.3037726720  PROE      5               0.0000000000
        80         5  ASN       HT1            32.8157794899       35.9692599321       50.5764259628  PROE      5               0.0000000000
        81         5  ASN       HT2            31.5321385427       35.0312290555       49.9612515085  PROE      5               0.0000000000
        82         5  ASN       HT3            33.2098056988       34.7016554105       49.5707989556  PROE      5               0.0000000000
        83         5  ASN       CA             32.7767514553       34.2590241698       51.5374995675  PROE      5               0.0000000000
        84         5  ASN       HA             31.8538468391       34.1746571978       52.0777473335  PROE      5               0.0000000000
        85         5  ASN       CB             33.6017168582       32.9104279443       51.4572189474  PROE      5               0.0000000000
        86         5  ASN       HB1            33.9328048297       32.6413415940       52.4845625324  PROE      5               0.0000000000
        87         5  ASN       HB2            34.5464090672       33.0967415495       50.9102996501  PROE      5               0.0000000000
        88         5  ASN       CG             32.9843855681       31.6137170417       50.9282532547  PROE      5               0.0000000000
        89         5  ASN       OD1            33.7249915860       30.7794496148       50.3977590737  PROE      5               0.0000000000
        90         5  ASN       ND2            31.6567310103       31.3963490338       51.0381401641  PROE      5               0.0000000000
        91         5  ASN       HD21           31.3553050022       30.4588008911       50.8322556023  PROE      5               0.0000000000
        92         5  ASN       HD22           31.0379156087       32.0451426316       51.4585351621  PROE      5               0.0000000000
        93         5  ASN       C              33.6617547251       35.2745990657       52.2879937610  PROE      5               0.0000000000
        94         5  ASN       OT1            33.7793377961       36.4684696915       51.8917591177  PROE      5               0.0000000000
        95         5  ASN       OT2            34.2034773693       34.8101824253       53.3123505669  PROE      5               0.0000000000
        96         6  PRO       N              32.0105394491       34.1146743408       54.7461916306  PROF      6               0.0000000000
        97         6  PRO       HN1            31.3813150917       34.8968543840       54.7349615376  PROF      6               0.0000000000
        98         6  PRO       HN2            32.8402965150       34.4017765105       54.2193274331  PROF      6               0.0000000000
        99         6  PRO       CD             31.5206029768       32.7402208331       54.4149870104  PROF      6               0.0000000000
       100         6  PRO       HD1            31.3989123625       32.5909340259       53.3322653895  PROF      6               0.0000000000
       101         6  PRO       HD2            30.5478304943       32.5791784015       54.9266232639  PROF      6               0.0000000000
       102         6  PRO       CA             32.5647603540       33.9886652700       56.0924980894  PROF      6               0.0000000000
       103         6  PRO       HA             31.7287227933       33.7925796771       56.7459509501  PROF      6               0.0000000000
       104         6  PRO       CB             33.4796450121       32.7726863817       55.8657810026  PROF      6               0.0000000000
       105         6  PRO       HB1            33.8079313950       32.3291496679       56.8272517197  PROF      6               0.0000000000
       106         6  PRO       HB2            34.3842001543       33.0869757399       55.2916687806  PROF      6               0.0000000000
       107         6  PRO       CG             32.5980602610       31.8195881125       55.0237252273  PROF      6               0.0000000000
       108         6  PRO       HG1            33.2052277066       31.3039450435       54.2522573395  PROF      6               0.0000000000
       109         6  PRO       HG2            32.1191341484       31.0546843585       55.6726371660  PROF      6               0.0000000000
       110         6  PRO       C              33.1458632427       35.3084401215       56.5216025219  PROF      6               0.0000000000
       111         6  PRO       OT1            33.2291716197       36.2799100926       55.7240032415  PROF      6               0.0000000000
       112         6  PRO       OT2            33.4213923057       35.3929000445       57.7479514472  PROF      6               0.0000000000
       113         7  POPC      N              36.6288923995       42.1215642912       66.7746708188  MEMB      1               0.0000000000
       114         7  POPC      C12            35.7995850554       41.0654568393       66.0521623452  MEMB      1               0.0000000000
       115         7  POPC      H12A           34.8479304783       41.4859036880       65.7877346618  MEMB      1               0.0000000000
       116         7  POPC      H12B           35.6095510463       40.2514731096       66.7538308059  MEMB      1               0.0000000000
       117         7  POPC      C13            36.9927313316       43.2952591765       65.9226226327  MEMB      1               0.0000000000
       118         7  POPC      H13A           37.5430533642       44.0493683455       66.4887266222  MEMB      1               0.0000000000
       119         7  POPC      H13B           37.7103582150       43.0036266807       65.1595741698  MEMB      1               0.0000000000
       120         7  POPC      H13C           36.1471687646       43.7927895607       65.4677149956  MEMB      1               0.0000000000
       121         7  POPC      C14            35.8728789559       42.6553964453       67.9370833094  MEMB      1               0.0000000000
       122         7  POPC      H14A           35.6954902239       41.8993301519       68.6892226091  MEMB      1               0.0000000000
       123         7  POPC      H14B           36.4315706392       43.4707418235       68.3944547121  MEMB      1               0.0000000000
       124         7  POPC      H14C           34.9110594755       43.0445803311       67.6134467570  MEMB      1               0.0000000000
       125         7  POPC      C15            37.8834076138       41.4535685414       67.2704823666  MEMB      1               0.0000000000
       126         7  POPC      H15A           38.4200265588       41.0071371829       66.4272105192  MEMB      1               0.0000000000
       127         7  POPC      H15B           37.6369533816       40.6462337942       67.9543261983  MEMB      1               0.0000000000
       128         7  POPC      H15C           38.5665874129       42.1349208825       67.7607526146  MEMB      1               0.0000000000
       129         7  POPC      C11            36.4164855613       40.3529197927       64.8309075735  MEMB      1               0.0000000000
       130         7  POPC      H11A           36.8737405014       41.0855068346       64.1395795359  MEMB      1               0.0000000000
       131         7  POPC      H11B           35.6151044808       39.8090719043       64.2755279406  MEMB      1               0.0000000000
       132         7  POPC      P              38.3748709561       38.7184649993       64.2971359342  MEMB      1               0.0000000000
       133         7  POPC      O13            37.5911949116       38.1127141360       63.2011911599  MEMB      1               0.0000000000
       134         7  POPC      O14            39.1739244857       37.8040125998       65.1626345059  MEMB      1               0.0000000000
       135         7  POPC      O12            37.3746522332       39.4240139354       65.3068664763  MEMB      1               0.0000000000
       136         7  POPC      O11            39.2629732083       39.9434328109       63.7671512436  MEMB      1               0.0000000000
       137         7  POPC      C1             40.4367420277       40.2603694554       64.5312924962  MEMB      1               0.0000000000
       138         7  POPC      HA             41.0782042451       39.3559032678       64.6678208777  MEMB      1               0.0000000000
       139         7  POPC      HB             40.1306434897       40.6380777866       65.5303233827  MEMB      1               0.0000000000
       140         7  POPC      C2             41.3834701888       41.3434699476       63.9054124817  MEMB      1               0.0000000000
       141         7  POPC      HS             41.9709872586       41.8022132553       64.7305750696  MEMB      1               0.0000000000
       142         7  POPC      O21            40.7145473401       42.3738633175       63.1913135089  MEMB      1               0.0000000000
       143         7  POPC      C21            39.8359582704       43.0449270305       63.8565233864  MEMB      1               0.0000000000
       144         7  POPC      O22            39.7278387512       43.1056630248       65.0753863920  MEMB      1               0.0000000000
       145         7  POPC      C22            39.0051345295       43.8454703226       62.8554395727  MEMB      1               0.0000000000
       146         7  POPC      H2R            39.6720790227       44.1825556308       62.0323034316  MEMB      1               0.0000000000
       147         7  POPC      H2S            38.6159661765       44.7386972113       63.3834375206  MEMB      1               0.0000000000
       148         7  POPC      C3             42.3844655957       40.7167469825       62.9135790945  MEMB      1               0.0000000000
       149         7  POPC      HX             43.1665724458       40.1970358440       63.5014800499  MEMB      1               0.0000000000
       150         7  POPC      HY             42.8784367303       41.5508930032       62.3607517594  MEMB      1               0.0000000000
       151         7  POPC      O31            41.7748899724       39.7559837720       62.0283824553  MEMB      1               0.0000000000
       152         7  POPC      C31            41.0391151799       40.2535283116       61.0428725904  MEMB      1               0.0000000000
       153         7  POPC      O32            40.9580958788       41.4238841589       60.7220536503  MEMB      1               0.0000000000
       154         7  POPC      C32            40.4746793914       39.0943175237       60.2195110489  MEMB      1               0.0000000000
       155         7  POPC      H2X            40.7501885199       38.1240258063       60.6786879643  MEMB      1               0.0000000000
       156         7  POPC      H2Y            40.9810651688       39.1682802524       59.2383297645  MEMB      1               0.0000000000
       157         7  POPC      C23            37.8484663460       43.0099852301       62.2621242076  MEMB      1               0.0000000000
       158         7  POPC      H3R            37.1578173201       42.7382051382       63.0833413351  MEMB      1               0.0000000000
       159         7  POPC      H3S            38.2340949385       42.0711186206       61.8011892461  MEMB      1               0.0000000000
       160         7  POPC      C24            37.0433104424       43.8026367947       61.2314907208  MEMB      1               0.0000000000
       161         7  POPC      H4R            37.5917567667       43.8310626769       60.2643136169  MEMB      1               0.0000000000
       162         7  POPC      H4S            36.9923722658       44.8454910521       61.6185719801  MEMB      1               0.0000000000
       163         7  POPC      C25            35.6025693413       43.2966574128       61.0486017925  MEMB      1               0.0000000000
       164         7  POPC      H5R            35.0525462624       44.0390715731       60.4295822979  MEMB      1               0.0000000000
       165         7  POPC      H5S            35.1238656740       43.2552879347       62.0513557366  MEMB      1               0.0000000000
       166         7  POPC      C26            35.4868642702       41.9223356269       60.3720455462  MEMB      1               0.0000000000
       167         7  POPC      H6R            34.4201219822       41.6070959129       60.3997304132  MEMB      1               0.0000000000
       168         7  POPC      H6S            36.0780222271       41.1591204551       60.9263886897  MEMB      1               0.0000000000
       169         7  POPC      C27            35.9362432016       41.9616331282       58.9054332585  MEMB      1               0.0000000000
       170         7  POPC      H7R            37.0464627367       41.8771553742       58.8816459457  MEMB      1               0.0000000000
       171         7  POPC      H7S            35.6457274285       42.9517232553       58.4829093317  MEMB      1               0.0000000000
       172         7  POPC      C28            35.3094076752       40.8646298727       58.0235812634  MEMB      1               0.0000000000
       173         7  POPC      H8R            34.2173278896       40.8649753133       58.2376453970  MEMB      1               0.0000000000
       174         7  POPC      H8S            35.6821326156       39.8816490065       58.3912611189  MEMB      1               0.0000000000
       175         7  POPC      C29            35.4671272167       40.9193208900       56.5171332268  MEMB      1               0.0000000000
       176         7  POPC      H91            34.8384464096       40.1625362755       56.0138204742  MEMB      1               0.0000000000
       177         7  POPC      C210           36.2403849112       41.6850900016       55.7153836736  MEMB      1               0.0000000000
       178         7  POPC      H101           36.1565713319       41.5083376542       54.6325461250  MEMB      1               0.0000000000
       179         7  POPC      C211           37.2372353641       42.7718661614       56.0475474037  MEMB      1               0.0000000000
       180         7  POPC      H11R           37.3689537414       42.9117128487       57.1351614485  MEMB      1               0.0000000000
       181         7  POPC      H11S           36.8829273103       43.7495353092       55.6570755513  MEMB      1               0.0000000000
       182         7  POPC      C212           38.6492459827       42.4769811098       55.5042777371  MEMB      1               0.0000000000
       183         7  POPC      H12R           39.0028911474       41.5115451347       55.9255466024  MEMB      1               0.0000000000
       184         7  POPC      H12S           39.3403336035       43.2639241135       55.8849514375  MEMB      1               0.0000000000
       185         7  POPC      C213           38.7585884343       42.4386482894       53.9741984267  MEMB      1               0.0000000000
       186         7  POPC      H13R           38.1022949032       41.6426648944       53.5583682795  MEMB      1               0.0000000000
       187         7  POPC      H13S           39.8065762162       42.1652831543       53.7174986316  MEMB      1               0.0000000000
       188         7  POPC      C214           38.4055550204       43.7850904195       53.3289928633  MEMB      1               0.0000000000
       189         7  POPC      H14R           39.0271536549       44.5847366035       53.7951715917  MEMB      1               0.0000000000
       190         7  POPC      H14S           37.3386041756       44.0274277481       53.5307709569  MEMB      1               0.0000000000
       191         7  POPC      C215           38.6341114976       43.8088373951       51.8148017494  MEMB      1               0.0000000000
       192         7  POPC      H15R           38.3384916874       44.8125277269       51.4325971973  MEMB      1               0.0000000000
       193         7  POPC      H15S           37.9768423334       43.0521530061       51.3296725795  MEMB      1               0.0000000000
       194         7  POPC      C216           40.0930750035       43.5357909850       51.4300750161  MEMB      1               0.0000000000
       195         7  POPC      H16R           40.3076537865       42.4507387787       51.5599319489  MEMB      1               0.0000000000
       196         7  POPC      H16S           40.7688034150       44.1014361482       52.1111442457  MEMB      1               0.0000000000
       197         7  POPC      C217           40.4172621406       43.9315652107       49.9878478242  MEMB      1               0.0000000000
       198         7  POPC      H17R           41.4743958384       43.6558461064       49.7866537210  MEMB      1               0.0000000000
       199         7  POPC      H17S           40.3484518550       45.0390941823       49.8980277948  MEMB      1               0.0000000000
       200         7  POPC      C218           39.5082358427       43.2778104556       48.9446646503  MEMB      1               0.0000000000
       201         7  POPC      H18R           39.8487697918       43.5193795144       47.9158806018  MEMB      1               0.0000000000
       202         7  POPC      H18S           38.4621736549       43.6352329766       49.0522436588  MEMB      1               0.0000000000
       203         7  POPC      H18T           39.5184433613       42.1726563521       49.0617372372  MEMB      1               0.0000000000
       204         7  POPC      C33            38.9421354072       39.1763325232       60.0402221413  MEMB      1               0.0000000000
       205         7  POPC      H3X            38.6298022622       40.2370110317       59.8990719529  MEMB      1               0.0000000000
       206         7  POPC      H3Y            38.4433827997       38.7988678936       60.9621541256  MEMB      1               0.0000000000
       207         7  POPC      C34            38.4307688373       38.3818025663       58.8309809483  MEMB      1               0.0000000000
       208         7  POPC      H4X            37.3253308009       38.5009401410       58.7714826331  MEMB      1               0.0000000000
       209         7  POPC      H4Y            38.6362490670       37.2972446722       58.9767877951  MEMB      1               0.0000000000
       210         7  POPC      C35            39.0554107746       38.8565837058       57.5117917818  MEMB      1               0.0000000000
       211         7  POPC      H5X            40.0943873385       38.4697014803       57.4446055720  MEMB      1               0.0000000000
       212         7  POPC      H5Y            39.1086388098       39.9684016219       57.5126470606  MEMB      1               0.0000000000
       213         7  POPC      C36            38.2844886278       38.3926401121       56.2780995653  MEMB      1               0.0000000000
       214         7  POPC      H6X            37.3134266653       38.9293015668       56.2267898387  MEMB      1               0.0000000000
       215         7  POPC      H6Y            38.0372341895       37.3114379485       56.3725971833  MEMB      1               0.0000000000
       216         7  POPC      C37            39.0688922561       38.6228196034       54.9814395668  MEMB      1               0.0000000000
       217         7  POPC      H7X            39.9750787067       37.9875695308       54.9675942291  MEMB      1               0.0000000000
       218         7  POPC      H7Y            39.4197862563       39.6748635291       54.9294855266  MEMB      1               0.0000000000
       219         7  POPC      C38            38.2220511184       38.3159528151       53.7521350187  MEMB      1               0.0000000000
       220         7  POPC      H8X            37.4241747745       39.0925615275       53.6890985178  MEMB      1               0.0000000000
       221         7  POPC      H8Y            37.6986376473       37.3384825245       53.8691963024  MEMB      1               0.0000000000
       222         7  POPC      C39            39.0250564426       38.2973372763       52.4485070146  MEMB      1               0.0000000000
       223         7  POPC      H9X            39.3314922854       37.2499124312       52.2256302625  MEMB      1               0.0000000000
       224         7  POPC      H9Y            39.9437799937       38.9183674319       52.5417937216  MEMB      1               0.0000000000
       225         7  POPC      C310           38.1595150429       38.8500388464       51.3213667729  MEMB      1               0.0000000000
       226         7  POPC      H10X           38.0548534237       39.9514653032       51.4549320831  MEMB      1               0.0000000000
       227         7  POPC      H10Y           37.1389386053       38.4065659754       51.4222301985  MEMB      1               0.0000000000
       228         7  POPC      C311           38.6556335721       38.5519066082       49.9053766270  MEMB      1               0.0000000000
       229         7  POPC      H11X           38.6503960021       37.4519577603       49.7384925222  MEMB      1               0.0000000000
       230         7  POPC      H11Y           39.6890447556       38.9305187815       49.7537415722  MEMB      1               0.0000000000
       231         7  POPC      C312           37.6952610409       39.2200410266       48.9244501216  MEMB      1               0.0000000000
       232         7  POPC      H12X           37.7832877210       40.3221732977       49.0509408402  MEMB      1               0.0000000000
       233         7  POPC      H12Y           36.6576317052       38.9249651767       49.2143453078  MEMB      1               0.0000000000
       234         7  POPC      C313           37.8790409813       38.8441889769       47.4544560889  MEMB      1               0.0000000000
       235         7  POPC      H13X           37.8932764421       37.7344798354       47.3524182026  MEMB      1               0.0000000000
       236         7  POPC      H13Y           38.8460168889       39.2375798028       47.0759132936  MEMB      1               0.0000000000
       237         7  POPC      C314           36.7049068526       39.3771008798       46.6183508657  MEMB      1               0.0000000000
       238         7  POPC      H14X           35.7875171371       38.8434471260       46.9611348022  MEMB      1               0.0000000000
       239         7  POPC      H14Y           36.8431421265       39.0992385308       45.5520708051  MEMB      1               0.0000000000
       240         7  POPC      C315           36.4705580053       40.8944377584       46.7488730689  MEMB      1               0.0000000000
       241         7  POPC      H15X           36.1788993296       41.1319041544       47.7960699244  MEMB      1               0.0000000000
       242         7  POPC      H15Y           35.5993801877       41.1742632280       46.1174090036  MEMB      1               0.0000000000
       243         7  POPC      C316           37.6713467591       41.7578965625       46.3510757162  MEMB      1               0.0000000000
       244         7  POPC      H16X           37.9434797631       41.5863922864       45.2891223593  MEMB      1               0.0000000000
       245         7  POPC      H16Y           38.5557971411       41.5067953730       46.9724119177  MEMB      1               0.0000000000
       246         7  POPC      H16Z           37.4410869639       42.8359054300       46.4907863907  MEMB      1               0.0000000000
       247         8  POPS      N              29.6255600982       27.3315928576       65.0968426102  MEMB      2               0.0000000000
       248         8  POPS      HN1            28.9821588635       26.6688796500       64.5953672344  MEMB      2               0.0000000000
       249         8  POPS      HN2            30.4437796189       27.5932847042       64.5295457000  MEMB      2               0.0000000000
       250         8  POPS      HN3            29.8928452552       26.9448989560       66.0225547475  MEMB      2               0.0000000000
       251         8  POPS      C12            28.7785212584       28.5366046737       65.2978939693  MEMB      2               0.0000000000
       252         8  POPS      H12A           28.7843247841       29.0948169543       64.3744911452  MEMB      2               0.0000000000
       253         8  POPS      C13            29.2873205384       29.5088378751       66.3658488673  MEMB      2               0.0000000000
       254         8  POPS      O13A           30.4589384873       29.3534975561       66.8152941141  MEMB      2               0.0000000000
       255         8  POPS      O13B           28.5125426848       30.4381059104       66.7037573931  MEMB      2               0.0000000000
       256         8  POPS      C11            27.3344208336       28.0458326123       65.5669068899  MEMB      2               0.0000000000
       257         8  POPS      H11A           26.6270572087       28.9035338732       65.4623893787  MEMB      2               0.0000000000
       258         8  POPS      H11B           27.2759406951       27.6926402560       66.6189845844  MEMB      2               0.0000000000
       259         8  POPS      P              26.8164836243       27.1310849209       63.1547194254  MEMB      2               0.0000000000
       260         8  POPS      O13            27.1218217765       28.5199504368       62.7651039353  MEMB      2               0.0000000000
       261         8  POPS      O14            25.5427273075       26.5048635957       62.7842541710  MEMB      2               0.0000000000
       262         8  POPS      O12            26.9710990889       26.9589241579       64.7120277871  MEMB      2               0.0000000000
       263         8  POPS      O11            28.0303452006       26.2054046970       62.7135562036  MEMB      2               0.0000000000
       264         8  POPS      C1             29.2111937637       26.6895579284       62.0662453338  MEMB      2               0.0000000000
       265         8  POPS      HA             30.0836081416       26.2020590474       62.5499885619  MEMB      2               0.0000000000
       266         8  POPS      HB             29.3395391327       27.7931638298       62.1766028929  MEMB      2               0.0000000000
       267         8  POPS      C2             29.3246068923       26.3624607118       60.5401402736  MEMB      2               0.0000000000
       268         8  POPS      HS             30.3429179157       26.6736168224       60.2135644194  MEMB      2               0.0000000000
       269         8  POPS      O21            28.3229290492       27.0551212917       59.7839017756  MEMB      2               0.0000000000
       270         8  POPS      C21            28.6449775654       28.3090395036       59.4943671615  MEMB      2               0.0000000000
       271         8  POPS      O22            29.6772093769       28.8625749063       59.8432807722  MEMB      2               0.0000000000
       272         8  POPS      C22            27.6083978046       28.9170131976       58.5563522863  MEMB      2               0.0000000000
       273         8  POPS      H2R            27.2546539746       29.8643782367       59.0086752825  MEMB      2               0.0000000000
       274         8  POPS      H2S            26.7507996598       28.2181809258       58.4838139571  MEMB      2               0.0000000000
       275         8  POPS      C3             29.2346930292       24.8373224212       60.2095859140  MEMB      2               0.0000000000
       276         8  POPS      HX             30.0023430235       24.3278739833       60.8265071855  MEMB      2               0.0000000000
       277         8  POPS      HY             29.5195065994       24.6726570583       59.1447904322  MEMB      2               0.0000000000
       278         8  POPS      O31            27.9561407883       24.2607341317       60.5207803057  MEMB      2               0.0000000000
       279         8  POPS      C31            27.0284554227       24.4904433282       59.5880410171  MEMB      2               0.0000000000
       280         8  POPS      O32            27.2576119651       24.7721004792       58.4247024480  MEMB      2               0.0000000000
       281         8  POPS      C32            25.6485510891       24.2672399001       60.1977801642  MEMB      2               0.0000000000
       282         8  POPS      H2X            25.6524203468       24.6586525427       61.2340500308  MEMB      2               0.0000000000
       283         8  POPS      H2Y            25.5020299454       23.1769013903       60.2497311353  MEMB      2               0.0000000000
       284         8  POPS      C23            28.1808213920       29.1750164453       57.1416634573  MEMB      2               0.0000000000
       285         8  POPS      H3R            28.5322644747       28.2074018221       56.7117738743  MEMB      2               0.0000000000
       286         8  POPS      H3S            29.0525657156       29.8644280420       57.1903174655  MEMB      2               0.0000000000
       287         8  POPS      C24            27.1096179560       29.7502210440       56.2086806217  MEMB      2               0.0000000000
       288         8  POPS      H4R            26.8412567613       30.7845028547       56.5158332152  MEMB      2               0.0000000000
       289         8  POPS      H4S            26.1962307568       29.1221655073       56.3216941205  MEMB      2               0.0000000000
       290         8  POPS      C25            27.4912453089       29.7096766199       54.7247515779  MEMB      2               0.0000000000
       291         8  POPS      H5R            26.5739860814       29.9029049986       54.1328862335  MEMB      2               0.0000000000
       292         8  POPS      H5S            27.8455525518       28.6884665817       54.4622719837  MEMB      2               0.0000000000
       293         8  POPS      C26            28.5127495868       30.7688173602       54.3052756854  MEMB      2               0.0000000000
       294         8  POPS      H6R            29.4863681293       30.5300690434       54.7813617523  MEMB      2               0.0000000000
       295         8  POPS      H6S            28.1683862559       31.7559787762       54.6929418543  MEMB      2               0.0000000000
       296         8  POPS      C27            28.6492622270       30.8760417475       52.7739347044  MEMB      2               0.0000000000
       297         8  POPS      H7R            29.3877987167       31.6603351609       52.5256673122  MEMB      2               0.0000000000
       298         8  POPS      H7S            27.6646424173       31.2196289432       52.3730943995  MEMB      2               0.0000000000
       299         8  POPS      C28            29.0051059257       29.5585009817       52.0429507062  MEMB      2               0.0000000000
       300         8  POPS      H8R            29.1009068431       29.7847116904       50.9594093985  MEMB      2               0.0000000000
       301         8  POPS      H8S            28.1307588950       28.8775304290       52.1428526690  MEMB      2               0.0000000000
       302         8  POPS      C29            30.2272622924       28.8623308617       52.5894804555  MEMB      2               0.0000000000
       303         8  POPS      H91            30.2701565005       28.8651545268       53.6887504187  MEMB      2               0.0000000000
       304         8  POPS      C210           31.2160567998       28.2011827602       51.9552488511  MEMB      2               0.0000000000
       305         8  POPS      H101           31.9868580609       27.7528562815       52.6026467627  MEMB      2               0.0000000000
       306         8  POPS      C211           31.4796229345       27.9038210803       50.4951206689  MEMB      2               0.0000000000
       307         8  POPS      H11R           31.7137028905       26.8143982808       50.4427462899  MEMB      2               0.0000000000
       308         8  POPS      H11S           32.4159007149       28.4211036470       50.1839166720  MEMB      2               0.0000000000
       309         8  POPS      C212           30.4372421965       28.1391084272       49.3743077131  MEMB      2               0.0000000000
       310         8  POPS      H12R           30.4933640862       29.1978158229       49.0425859594  MEMB      2               0.0000000000
       311         8  POPS      H12S           29.4121141226       27.9440389269       49.7539257304  MEMB      2               0.0000000000
       312         8  POPS      C213           30.6859718077       27.1893658478       48.1833636595  MEMB      2               0.0000000000
       313         8  POPS      H13R           30.2099302860       26.2081504677       48.4068353425  MEMB      2               0.0000000000
       314         8  POPS      H13S           31.7818318528       27.0179440492       48.1125330903  MEMB      2               0.0000000000
       315         8  POPS      C214           30.1840698151       27.6818822889       46.8140265245  MEMB      2               0.0000000000
       316         8  POPS      H14R           30.7312392058       28.5978897443       46.5296046826  MEMB      2               0.0000000000
       317         8  POPS      H14S           29.1060919900       27.9378690812       46.8848735162  MEMB      2               0.0000000000
       318         8  POPS      C215           30.3568849875       26.6456876136       45.6901396151  MEMB      2               0.0000000000
       319         8  POPS      H15R           29.8188803530       26.9839285992       44.7772940679  MEMB      2               0.0000000000
       320         8  POPS      H15S           29.8654626497       25.7049461099       46.0276419730  MEMB      2               0.0000000000
       321         8  POPS      C216           31.8161891548       26.3345322288       45.3205655598  MEMB      2               0.0000000000
       322         8  POPS      H16R           31.8588166615       25.2988853047       44.9164837803  MEMB      2               0.0000000000
       323         8  POPS      H16S           32.4496927562       26.3563024973       46.2313199191  MEMB      2               0.0000000000
       324         8  POPS      C217           32.4184049971       27.2570666846       44.2514065144  MEMB      2               0.0000000000
       325         8  POPS      H17R           33.5255952329       27.2525944006       44.3837997033  MEMB      2               0.0000000000
       326         8  POPS      H17S           32.0586044551       28.2976690751       44.4003185053  MEMB      2               0.0000000000
       327         8  POPS      C218           32.1187627497       26.7987350301       42.8198880886  MEMB      2               0.0000000000
       328         8  POPS      H18R           32.5857119845       25.8065792225       42.6353230346  MEMB      2               0.0000000000
       329         8  POPS      H18S           32.5249311693       27.5168136788       42.0771010400  MEMB      2               0.0000000000
       330         8  POPS      H18T           31.0242567134       26.7070131192       42.6572169845  MEMB      2               0.0000000000
       331         8  POPS      C33            24.5241294595       24.9356489460       59.3791205928  MEMB      2               0.0000000000
       332         8  POPS      H3X            23.5615119207       24.4214992484       59.6025780742  MEMB      2               0.0000000000
       333         8  POPS      H3Y            24.7026938740       24.8281686625       58.2850960513  MEMB      2               0.0000000000
       334         8  POPS      C34            24.3714098389       26.4155322716       59.7559485608  MEMB      2               0.0000000000
       335         8  POPS      H4X            25.3536353940       26.9350336828       59.7042017923  MEMB      2               0.0000000000
       336         8  POPS      H4Y            24.0444378899       26.4606757144       60.8212250854  MEMB      2               0.0000000000
       337         8  POPS      C35            23.3374522913       27.1508943907       58.9002572440  MEMB      2               0.0000000000
       338         8  POPS      H5X            22.9106006860       27.9921020062       59.4942766701  MEMB      2               0.0000000000
       339         8  POPS      H5Y            22.5160606914       26.4377577006       58.6758162713  MEMB      2               0.0000000000
       340         8  POPS      C36            23.9029953631       27.7270900983       57.5920501392  MEMB      2               0.0000000000
       341         8  POPS      H6X            24.3872796405       26.9128612086       57.0089282256  MEMB      2               0.0000000000
       342         8  POPS      H6Y            24.6852615408       28.4755808958       57.8441714992  MEMB      2               0.0000000000
       343         8  POPS      C37            22.8137119399       28.4086536631       56.7484000597  MEMB      2               0.0000000000
       344         8  POPS      H7X            22.2849260377       29.1493112267       57.3886111959  MEMB      2               0.0000000000
       345         8  POPS      H7Y            22.0813220889       27.6350734874       56.4228459971  MEMB      2               0.0000000000
       346         8  POPS      C38            23.3105727032       29.1332515827       55.4944943117  MEMB      2               0.0000000000
       347         8  POPS      H8X            24.0623777685       29.9032597122       55.7733009789  MEMB      2               0.0000000000
       348         8  POPS      H8Y            22.4454398206       29.6610849225       55.0297625837  MEMB      2               0.0000000000
       349         8  POPS      C39            23.9054219815       28.1744881228       54.4626681254  MEMB      2               0.0000000000
       350         8  POPS      H9X            23.1880884702       27.3445388152       54.2673256557  MEMB      2               0.0000000000
       351         8  POPS      H9Y            24.8385531543       27.7265370507       54.8746526462  MEMB      2               0.0000000000
       352         8  POPS      C310           24.2181189566       28.8821390648       53.1453403512  MEMB      2               0.0000000000
       353         8  POPS      H10X           24.7537870681       29.8329974365       53.3410908398  MEMB      2               0.0000000000
       354         8  POPS      H10Y           23.2781309053       29.1752450867       52.6453861752  MEMB      2               0.0000000000
       355         8  POPS      C311           25.0422358157       28.0023922331       52.2070095163  MEMB      2               0.0000000000
       356         8  POPS      H11X           24.4821778707       27.0654660595       51.9891984861  MEMB      2               0.0000000000
       357         8  POPS      H11Y           25.9927536414       27.7216965390       52.7158652610  MEMB      2               0.0000000000
       358         8  POPS      C312           25.3710058201       28.7198635090       50.8991315955  MEMB      2               0.0000000000
       359         8  POPS      H12X           25.8834481202       29.6785128707       51.1419744241  MEMB      2               0.0000000000
       360         8  POPS      H12Y           24.4284444863       28.9689667912       50.3636131938  MEMB      2               0.0000000000
       361         8  POPS      C313           26.2853955412       27.8865558638       49.9989856309  MEMB      2               0.0000000000
       362         8  POPS      H13X           25.7693916047       26.9515356006       49.6881836573  MEMB      2               0.0000000000
       363         8  POPS      H13Y           27.1865892353       27.5911862415       50.5826059121  MEMB      2               0.0000000000
       364         8  POPS      C314           26.7389175857       28.6677768408       48.7647265925  MEMB      2               0.0000000000
       365         8  POPS      H14X           27.6070147555       28.1393197904       48.3168647511  MEMB      2               0.0000000000
       366         8  POPS      H14Y           27.0860270340       29.6802446962       49.0690435274  MEMB      2               0.0000000000
       367         8  POPS      C315           25.6456355051       28.7860661023       47.7021947649  MEMB      2               0.0000000000
       368         8  POPS      H15X           24.7214883007       29.2139516983       48.1519807908  MEMB      2               0.0000000000
       369         8  POPS      H15Y           25.3941911326       27.7644829934       47.3350762399  MEMB      2               0.0000000000
       370         8  POPS      C316           26.0710114661       29.6605154515       46.5269491874  MEMB      2               0.0000000000
       371         8  POPS      H16X           25.3322114544       29.6071109944       45.6997010667  MEMB      2               0.0000000000
       372         8  POPS      H16Y           27.0578255230       29.3311536756       46.1390727611  MEMB      2               0.0000000000
       373         8  POPS      H16Z           26.1565920620       30.7160483755       46.8510769999  MEMB      2               0.0000000000
       374         9  POPS      N              26.8919610250       35.3459004312       63.6949999834  MEMB      3               0.0000000000
       375         9  POPS      HN1            27.1747068979       36.3507777856       63.5726006499  MEMB      3               0.0000000000
       376         9  POPS      HN2            27.7225603125       34.7595816531       63.9547689270  MEMB      3               0.0000000000
       377         9  POPS      HN3            26.3878800762       34.9773594294       62.8525900039  MEMB      3               0.0000000000
       378         9  POPS      C12            25.9505107639       35.2094918897       64.8479627238  MEMB      3               0.0000000000
       379         9  POPS      H12A           26.4875423396       34.7329727506       65.6546039693  MEMB      3               0.0000000000
       380         9  POPS      C13            24.7503334553       34.3120420674       64.5035866023  MEMB      3               0.0000000000
       381         9  POPS      O13A           24.6046304310       33.9383698369       63.3100690709  MEMB      3               0.0000000000
       382         9  POPS      O13B           23.9781923472       33.9797313733       65.4451775518  MEMB      3               0.0000000000
       383         9  POPS      C11            25.4761607261       36.6063569423       65.3248363950  MEMB      3               0.0000000000
       384         9  POPS      H11A           24.7279601458       36.4528354442       66.1374653646  MEMB      3               0.0000000000
       385         9  POPS      H11B           24.9395196928       37.1329025480       64.4979485738  MEMB      3               0.0000000000
       386         9  POPS      P              27.1932455873       38.5737962750       65.1007441785  MEMB      3               0.0000000000
       387         9  POPS      O13            28.3742604326       39.0134026226       65.8687214198  MEMB      3               0.0000000000
       388         9  POPS      O14            26.1323990941       39.5488193874       64.7752883840  MEMB      3               0.0000000000
       389         9  POPS      O12            26.5729322304       37.3531373236       65.8613766802  MEMB      3               0.0000000000
       390         9  POPS      O11            27.7182066248       37.8953333199       63.7572735583  MEMB      3               0.0000000000
       391         9  POPS      C1             28.7964672530       38.6314372450       63.1351436172  MEMB      3               0.0000000000
       392         9  POPS      HA             29.7710849413       38.3637773570       63.6045554962  MEMB      3               0.0000000000
       393         9  POPS      HB             28.6612264330       39.7366285134       63.2369195657  MEMB      3               0.0000000000
       394         9  POPS      C2             28.8860553690       38.3658234266       61.6156969046  MEMB      3               0.0000000000
       395         9  POPS      HS             29.6563107352       39.0352129450       61.1626719948  MEMB      3               0.0000000000
       396         9  POPS      O21            27.6113749884       38.5871829558       61.0041117241  MEMB      3               0.0000000000
       397         9  POPS      C21            27.2355441252       39.8412492214       60.9295036735  MEMB      3               0.0000000000
       398         9  POPS      O22            27.9413175681       40.8131838542       61.1421073503  MEMB      3               0.0000000000
       399         9  POPS      C22            25.7811973309       39.8799177954       60.4877273008  MEMB      3               0.0000000000
       400         9  POPS      H2R            25.4003271903       40.9120856928       60.6148627119  MEMB      3               0.0000000000
       401         9  POPS      H2S            25.2174895720       39.2056741710       61.1683465973  MEMB      3               0.0000000000
       402         9  POPS      C3             29.3229987002       36.9140303795       61.3335565890  MEMB      3               0.0000000000
       403         9  POPS      HX             28.7083957287       36.2104572321       61.9329008705  MEMB      3               0.0000000000
       404         9  POPS      HY             30.3793733085       36.7920856813       61.6607587761  MEMB      3               0.0000000000
       405         9  POPS      O31            29.2397044330       36.6572681860       59.9307192465  MEMB      3               0.0000000000
       406         9  POPS      C31            28.0676313101       36.2299376046       59.4694011047  MEMB      3               0.0000000000
       407         9  POPS      O32            27.1326907044       35.8540815171       60.1539294177  MEMB      3               0.0000000000
       408         9  POPS      C32            28.1043397890       36.3730635494       57.9368000221  MEMB      3               0.0000000000
       409         9  POPS      H2X            29.1592373928       36.2085170283       57.6248430841  MEMB      3               0.0000000000
       410         9  POPS      H2Y            27.8493926946       37.4211032287       57.6822828481  MEMB      3               0.0000000000
       411         9  POPS      C23            25.5932509385       39.3999342843       59.0295715367  MEMB      3               0.0000000000
       412         9  POPS      H3R            24.5191369784       39.1388035601       58.8941158395  MEMB      3               0.0000000000
       413         9  POPS      H3S            26.1637759319       38.4674076988       58.8313888870  MEMB      3               0.0000000000
       414         9  POPS      C24            25.9616705757       40.4881146132       58.0157392461  MEMB      3               0.0000000000
       415         9  POPS      H4R            27.0665218538       40.6117233487       57.9761646611  MEMB      3               0.0000000000
       416         9  POPS      H4S            25.5291028976       41.4594933107       58.3445164710  MEMB      3               0.0000000000
       417         9  POPS      C25            25.4314446598       40.1830070462       56.6131553608  MEMB      3               0.0000000000
       418         9  POPS      H5R            24.3616457724       39.9122346652       56.6742133104  MEMB      3               0.0000000000
       419         9  POPS      H5S            25.9470863248       39.2866356126       56.2192894172  MEMB      3               0.0000000000
       420         9  POPS      C26            25.5540392732       41.3808532168       55.6630555350  MEMB      3               0.0000000000
       421         9  POPS      H6R            26.6139466919       41.7094377706       55.6071605460  MEMB      3               0.0000000000
       422         9  POPS      H6S            24.9671628093       42.2290793250       56.0840484792  MEMB      3               0.0000000000
       423         9  POPS      C27            25.0226310305       41.0832053263       54.2491610312  MEMB      3               0.0000000000
       424         9  POPS      H7R            24.9294774351       42.0400723939       53.6876532798  MEMB      3               0.0000000000
       425         9  POPS      H7S            23.9962784747       40.6636757643       54.3464305331  MEMB      3               0.0000000000
       426         9  POPS      C28            25.8821622349       40.0906330992       53.4407413002  MEMB      3               0.0000000000
       427         9  POPS      H8R            25.3220561177       39.8201896165       52.5173461220  MEMB      3               0.0000000000
       428         9  POPS      H8S            25.9834164893       39.1449699988       54.0178649808  MEMB      3               0.0000000000
       429         9  POPS      C29            27.2221724686       40.6731501388       53.0602208409  MEMB      3               0.0000000000
       430         9  POPS      H91            27.1978768357       41.3825042164       52.2179661135  MEMB      3               0.0000000000
       431         9  POPS      C210           28.4084300434       40.4225924826       53.6469283898  MEMB      3               0.0000000000
       432         9  POPS      H101           29.3060570921       40.9060436978       53.2333304469  MEMB      3               0.0000000000
       433         9  POPS      C211           28.6757460352       39.5054811479       54.8183137701  MEMB      3               0.0000000000
       434         9  POPS      H11R           27.7398137563       39.1548877851       55.2933338680  MEMB      3               0.0000000000
       435         9  POPS      H11S           29.2370542971       40.0550959098       55.6019411095  MEMB      3               0.0000000000
       436         9  POPS      C212           29.4853228642       38.2513023671       54.4432465667  MEMB      3               0.0000000000
       437         9  POPS      H12R           29.7146895122       37.6766304015       55.3685972412  MEMB      3               0.0000000000
       438         9  POPS      H12S           30.4614706927       38.5552780370       54.0023089533  MEMB      3               0.0000000000
       439         9  POPS      C213           28.7279374838       37.3589817727       53.4547890031  MEMB      3               0.0000000000
       440         9  POPS      H13R           28.4102175594       38.0015577587       52.6050179151  MEMB      3               0.0000000000
       441         9  POPS      H13S           27.7990049508       36.9706968649       53.9267813237  MEMB      3               0.0000000000
       442         9  POPS      C214           29.5738391356       36.2049207680       52.9126591785  MEMB      3               0.0000000000
       443         9  POPS      H14R           29.8219377819       35.5254620496       53.7544257967  MEMB      3               0.0000000000
       444         9  POPS      H14S           30.5248293136       36.6360797362       52.5198398968  MEMB      3               0.0000000000
       445         9  POPS      C215           28.8595777501       35.4229787055       51.7997204283  MEMB      3               0.0000000000
       446         9  POPS      H15R           27.9827970599       34.8835754784       52.2319868088  MEMB      3               0.0000000000
       447         9  POPS      H15S           29.5581580295       34.6641229000       51.3980031002  MEMB      3               0.0000000000
       448         9  POPS      C216           28.3272915094       36.3353659864       50.6807449367  MEMB      3               0.0000000000
       449         9  POPS      H16R           29.0574881312       37.1464461573       50.4612954282  MEMB      3               0.0000000000
       450         9  POPS      H16S           27.3948944271       36.8310943091       51.0429634435  MEMB      3               0.0000000000
       451         9  POPS      C217           27.9924209415       35.6047256219       49.3812748711  MEMB      3               0.0000000000
       452         9  POPS      H17R           27.4641370900       36.3221015072       48.7096286801  MEMB      3               0.0000000000
       453         9  POPS      H17S           27.2780190717       34.7780022004       49.6002370981  MEMB      3               0.0000000000
       454         9  POPS      C218           29.2222684937       35.0576740911       48.6702299873  MEMB      3               0.0000000000
       455         9  POPS      H18R           29.9777374960       35.8664070330       48.5448016744  MEMB      3               0.0000000000
       456         9  POPS      H18S           28.9489352308       34.6828543468       47.6632148624  MEMB      3               0.0000000000
       457         9  POPS      H18T           29.6506783669       34.2173049270       49.2526068985  MEMB      3               0.0000000000
       458         9  POPS      C33            27.2063483753       35.3983203666       57.1376399471  MEMB      3               0.0000000000
       459         9  POPS      H3X            27.3386535817       34.3553524208       57.4986152891  MEMB      3               0.0000000000
       460         9  POPS      H3Y            27.5465953674       35.4345685150       56.0769842379  MEMB      3               0.0000000000
       461         9  POPS      C34            25.7142247962       35.7663278422       57.1508056043  MEMB      3               0.0000000000
       462         9  POPS      H4X            25.5785156897       36.8272929284       56.8447379824  MEMB      3               0.0000000000
       463         9  POPS      H4Y            25.3416572933       35.6644965910       58.1978010489  MEMB      3               0.0000000000
       464         9  POPS      C35            24.8458841255       34.8697467275       56.2460375077  MEMB      3               0.0000000000
       465         9  POPS      H5X            23.7744633853       35.0603996803       56.4914007261  MEMB      3               0.0000000000
       466         9  POPS      H5Y            25.0553264391       33.8031819897       56.4892686473  MEMB      3               0.0000000000
       467         9  POPS      C36            25.0303934169       35.0900097587       54.7330032485  MEMB      3               0.0000000000
       468         9  POPS      H6X            26.0990180232       34.9441406478       54.4619040804  MEMB      3               0.0000000000
       469         9  POPS      H6Y            24.7547946286       36.1346972615       54.4677892655  MEMB      3               0.0000000000
       470         9  POPS      C37            24.1887423590       34.1013057322       53.9075844962  MEMB      3               0.0000000000
       471         9  POPS      H7X            23.1063985612       34.2708280283       54.1014839268  MEMB      3               0.0000000000
       472         9  POPS      H7Y            24.4331548225       33.0728473276       54.2647484967  MEMB      3               0.0000000000
       473         9  POPS      C38            24.4567616521       34.1420583432       52.3923156071  MEMB      3               0.0000000000
       474         9  POPS      H8X            24.0252325372       33.2115193031       51.9588106317  MEMB      3               0.0000000000
       475         9  POPS      H8Y            25.5525498082       34.1195166691       52.2041807670  MEMB      3               0.0000000000
       476         9  POPS      C39            23.8352065670       35.3536857764       51.6774803431  MEMB      3               0.0000000000
       477         9  POPS      H9X            24.2670301410       36.2869368990       52.1022500568  MEMB      3               0.0000000000
       478         9  POPS      H9Y            22.7406997831       35.3674586088       51.8824186440  MEMB      3               0.0000000000
       479         9  POPS      C310           24.0441040724       35.3563667597       50.1498022772  MEMB      3               0.0000000000
       480         9  POPS      H10X           25.1295164664       35.4349361195       49.9247980925  MEMB      3               0.0000000000
       481         9  POPS      H10Y           23.5487350386       36.2623736397       49.7333965522  MEMB      3               0.0000000000
       482         9  POPS      C311           23.4707753443       34.1075899492       49.4592259401  MEMB      3               0.0000000000
       483         9  POPS      H11X           22.4121877895       33.9784808569       49.7786437998  MEMB      3               0.0000000000
       484         9  POPS      H11Y           24.0454516050       33.2141006116       49.7948913135  MEMB      3               0.0000000000
       485         9  POPS      C312           23.5149905398       34.1468247919       47.9233182583  MEMB      3               0.0000000000
       486         9  POPS      H12X           23.1937518931       33.1446442991       47.5546368239  MEMB      3               0.0000000000
       487         9  POPS      H12Y           24.5572507225       34.3243241987       47.5848192692  MEMB      3               0.0000000000
       488         9  POPS      C313           22.6069564040       35.2118408343       47.2929545106  MEMB      3               0.0000000000
       489         9  POPS      H13X           23.1632539508       36.1741626789       47.2337438008  MEMB      3               0.0000000000
       490         9  POPS      H13Y           21.7361566027       35.3729846461       47.9624706034  MEMB      3               0.0000000000
       491         9  POPS      C314           22.0819040085       34.8351184959       45.8966234060  MEMB      3               0.0000000000
       492         9  POPS      H14X           21.5495830805       35.7155680942       45.4701775380  MEMB      3               0.0000000000
       493         9  POPS      H14Y           21.3423243413       34.0085329628       45.9985519979  MEMB      3               0.0000000000
       494         9  POPS      C315           23.1785276097       34.3919477641       44.9194433685  MEMB      3               0.0000000000
       495         9  POPS      H15X           23.6436875327       33.4483306621       45.2850965865  MEMB      3               0.0000000000
       496         9  POPS      H15Y           23.9761917743       35.1660254173       44.9094821701  MEMB      3               0.0000000000
       497         9  POPS      C316           22.6672774234       34.1625407592       43.4962735301  MEMB      3               0.0000000000
       498         9  POPS      H16X           22.2521213892       35.1024291095       43.0726853844  MEMB      3               0.0000000000
       499         9  POPS      H16Y           21.8657654332       33.3945903862       43.4944322852  MEMB      3               0.0000000000
       500         9  POPS      H16Z           23.4896462808       33.8121549086       42.8352382261  MEMB      3               0.0000000000
       501        10  POPC      N              39.6907081648       30.8212775361       66.2945253414  MEMB      4               0.0000000000
       502        10  POPC      C12            38.2977516045       31.4028479179       66.1644684286  MEMB      4               0.0000000000
       503        10  POPC      H12A           38.0033276916       31.7800923061       67.1349967503  MEMB      4               0.0000000000
       504        10  POPC      H12B           37.6213832485       30.6040604484       65.8995268409  MEMB      4               0.0000000000
       505        10  POPC      C13            40.7035794404       31.9285707874       66.3292307578  MEMB      4               0.0000000000
       506        10  POPC      H13A           40.7221412567       32.4414010419       65.3606872947  MEMB      4               0.0000000000
       507        10  POPC      H13B           40.4949245570       32.6734038580       67.0758399529  MEMB      4               0.0000000000
       508        10  POPC      H13C           41.7076299812       31.5361962957       66.4591881410  MEMB      4               0.0000000000
       509        10  POPC      C14            39.8584125421       29.9227052310       67.4808745418  MEMB      4               0.0000000000
       510        10  POPC      H14A           40.8255718180       29.4201699740       67.4370171125  MEMB      4               0.0000000000
       511        10  POPC      H14B           39.8070060319       30.4608389664       68.4156547858  MEMB      4               0.0000000000
       512        10  POPC      H14C           39.1072026611       29.1359694399       67.4751060012  MEMB      4               0.0000000000
       513        10  POPC      C15            40.0291971034       30.0037074343       65.0870241702  MEMB      4               0.0000000000
       514        10  POPC      H15A           39.4153894219       29.1289156307       64.9915636652  MEMB      4               0.0000000000
       515        10  POPC      H15B           41.0830675156       29.7238112857       65.1163821267  MEMB      4               0.0000000000
       516        10  POPC      H15C           39.9235549804       30.6346031196       64.1992532897  MEMB      4               0.0000000000
       517        10  POPC      C11            38.0850701631       32.5592469385       65.1402874007  MEMB      4               0.0000000000
       518        10  POPC      H11A           38.5888543604       33.4754150580       65.5369587103  MEMB      4               0.0000000000
       519        10  POPC      H11B           37.0021379268       32.8106507910       65.1062633460  MEMB      4               0.0000000000
       520        10  POPC      P              39.7123228730       32.9940919546       63.1051718040  MEMB      4               0.0000000000
       521        10  POPC      O13            40.8909502901       32.1099336298       63.2531042735  MEMB      4               0.0000000000
       522        10  POPC      O14            39.7735374675       34.3496235366       63.6927611048  MEMB      4               0.0000000000
       523        10  POPC      O12            38.5046822453       32.2144024114       63.8173875025  MEMB      4               0.0000000000
       524        10  POPC      O11            39.2556253206       33.0229550728       61.5989199203  MEMB      4               0.0000000000
       525        10  POPC      C1             38.1981179399       32.1682539324       61.1561938456  MEMB      4               0.0000000000
       526        10  POPC      HA             37.9550002877       32.4622153470       60.1113609112  MEMB      4               0.0000000000
       527        10  POPC      HB             37.2705018182       32.3200967184       61.7541604723  MEMB      4               0.0000000000
       528        10  POPC      C2             38.6060753004       30.6635097101       61.1434829161  MEMB      4               0.0000000000
       529        10  POPC      HS             38.6655860467       30.3203579712       62.2038089866  MEMB      4               0.0000000000
       530        10  POPC      O21            39.8795937839       30.5666455007       60.4936817308  MEMB      4               0.0000000000
       531        10  POPC      C21            40.8268692996       29.8975070567       61.1197058052  MEMB      4               0.0000000000
       532        10  POPC      O22            40.6686536372       28.9761801941       61.9128987324  MEMB      4               0.0000000000
       533        10  POPC      C22            42.1741696209       30.5222409861       60.7191879579  MEMB      4               0.0000000000
       534        10  POPC      H2R            42.8851723845       30.2473426081       61.5266145323  MEMB      4               0.0000000000
       535        10  POPC      H2S            42.0627208887       31.6229257170       60.7550623645  MEMB      4               0.0000000000
       536        10  POPC      C3             37.5331594490       29.7930410707       60.4264331473  MEMB      4               0.0000000000
       537        10  POPC      HX             36.6716123742       29.7075447021       61.1232764555  MEMB      4               0.0000000000
       538        10  POPC      HY             37.9368759757       28.7661474993       60.2848334734  MEMB      4               0.0000000000
       539        10  POPC      O31            37.0475692023       30.3880857189       59.2016072114  MEMB      4               0.0000000000
       540        10  POPC      C31            37.7724595726       30.1071822498       58.1172898144  MEMB      4               0.0000000000
       541        10  POPC      O32            38.6848139911       29.3097383363       58.0657454828  MEMB      4               0.0000000000
       542        10  POPC      C32            37.2302241834       30.8916275336       56.9197842021  MEMB      4               0.0000000000
       543        10  POPC      H2X            37.4939582856       31.9607491381       57.0498376546  MEMB      4               0.0000000000
       544        10  POPC      H2Y            36.1252754315       30.7961811071       56.9241018397  MEMB      4               0.0000000000
       545        10  POPC      C23            42.7469263439       30.0379587246       59.3600706709  MEMB      4               0.0000000000
       546        10  POPC      H3R            42.5697839059       28.9428935322       59.2837705253  MEMB      4               0.0000000000
       547        10  POPC      H3S            43.8452622330       30.2185761890       59.3515721558  MEMB      4               0.0000000000
       548        10  POPC      C24            42.1738218405       30.6311452051       58.0678133987  MEMB      4               0.0000000000
       549        10  POPC      H4R            41.0677422014       30.6795996696       58.1333556232  MEMB      4               0.0000000000
       550        10  POPC      H4S            42.4041997427       29.8998421635       57.2561078646  MEMB      4               0.0000000000
       551        10  POPC      C25            42.7932029654       31.9720161265       57.6440584210  MEMB      4               0.0000000000
       552        10  POPC      H5R            42.5338467757       32.1411782933       56.5712390908  MEMB      4               0.0000000000
       553        10  POPC      H5S            43.9007721458       31.9157866535       57.7131209221  MEMB      4               0.0000000000
       554        10  POPC      C26            42.2703940602       33.1899123463       58.4221860548  MEMB      4               0.0000000000
       555        10  POPC      H6R            42.7123822354       34.0941382488       57.9529103971  MEMB      4               0.0000000000
       556        10  POPC      H6S            42.6257994651       33.1834749029       59.4747416015  MEMB      4               0.0000000000
       557        10  POPC      C27            40.7285233836       33.2569364908       58.4041243355  MEMB      4               0.0000000000
       558        10  POPC      H7R            40.3373010221       32.6015411991       59.2142383876  MEMB      4               0.0000000000
       559        10  POPC      H7S            40.3699417928       32.8291182324       57.4413623725  MEMB      4               0.0000000000
       560        10  POPC      C28            40.1234555194       34.6573685793       58.5833597958  MEMB      4               0.0000000000
       561        10  POPC      H8R            40.3871189667       35.0340487717       59.6008474673  MEMB      4               0.0000000000
       562        10  POPC      H8S            39.0128444978       34.5868698647       58.5499887431  MEMB      4               0.0000000000
       563        10  POPC      C29            40.6501188126       35.5773992669       57.5195887804  MEMB      4               0.0000000000
       564        10  POPC      H91            41.3662874994       36.3136250042       57.8966142732  MEMB      4               0.0000000000
       565        10  POPC      C210           40.3355855591       35.6070740235       56.2152147678  MEMB      4               0.0000000000
       566        10  POPC      H101           40.8829610974       36.3162511100       55.5809060046  MEMB      4               0.0000000000
       567        10  POPC      C211           39.3710945316       34.7426298893       55.4467377510  MEMB      4               0.0000000000
       568        10  POPC      H11R           38.4458984161       35.3323388146       55.2463473583  MEMB      4               0.0000000000
       569        10  POPC      H11S           39.0490872654       33.8418748168       56.0135604389  MEMB      4               0.0000000000
       570        10  POPC      C212           39.9521071534       34.3308202732       54.0774964805  MEMB      4               0.0000000000
       571        10  POPC      H12R           40.5804163473       33.4231330014       54.2094559003  MEMB      4               0.0000000000
       572        10  POPC      H12S           40.6105388671       35.1246732818       53.6572307478  MEMB      4               0.0000000000
       573        10  POPC      C213           38.8469315663       34.0699692342       53.0405333675  MEMB      4               0.0000000000
       574        10  POPC      H13R           38.4689865886       35.0433993708       52.6539209722  MEMB      4               0.0000000000
       575        10  POPC      H13S           37.9854518453       33.5700623963       53.5385133435  MEMB      4               0.0000000000
       576        10  POPC      C214           39.3068251727       33.1904280262       51.8694342520  MEMB      4               0.0000000000
       577        10  POPC      H14R           39.4951641929       32.1756367979       52.2863167650  MEMB      4               0.0000000000
       578        10  POPC      H14S           40.2652243634       33.5679969727       51.4518498046  MEMB      4               0.0000000000
       579        10  POPC      C215           38.2525286405       33.0875290311       50.7577848453  MEMB      4               0.0000000000
       580        10  POPC      H15R           37.2437461689       33.1027340326       51.2315628265  MEMB      4               0.0000000000
       581        10  POPC      H15S           38.3662815276       32.1098630817       50.2378670983  MEMB      4               0.0000000000
       582        10  POPC      C216           38.3403667699       34.2197031086       49.7192018172  MEMB      4               0.0000000000
       583        10  POPC      H16R           38.4976262897       35.1891680278       50.2416008500  MEMB      4               0.0000000000
       584        10  POPC      H16S           37.3610568552       34.2987689923       49.1949524158  MEMB      4               0.0000000000
       585        10  POPC      C217           39.4387212996       33.9995480305       48.6679676508  MEMB      4               0.0000000000
       586        10  POPC      H17R           39.3276257124       32.9766448691       48.2403377535  MEMB      4               0.0000000000
       587        10  POPC      H17S           40.4331274016       34.0426503834       49.1682262390  MEMB      4               0.0000000000
       588        10  POPC      C218           39.3897441016       35.0204403969       47.5278868318  MEMB      4               0.0000000000
       589        10  POPC      H18R           38.4320930345       34.9409612206       46.9674899541  MEMB      4               0.0000000000
       590        10  POPC      H18S           40.2296656085       34.8627401225       46.8186117301  MEMB      4               0.0000000000
       591        10  POPC      H18T           39.4631217767       36.0519699356       47.9341656603  MEMB      4               0.0000000000
       592        10  POPC      C33            37.7957542602       30.3541442771       55.5836654984  MEMB      4               0.0000000000
       593        10  POPC      H3X            37.1843433992       30.7331200958       54.7338382524  MEMB      4               0.0000000000
       594        10  POPC      H3Y            37.7160079297       29.2428184356       55.5733572639  MEMB      4               0.0000000000
       595        10  POPC      C34            39.2584605865       30.7582459824       55.3406444036  MEMB      4               0.0000000000
       596        10  POPC      H4X            39.8011329189       30.8102546884       56.3106969860  MEMB      4               0.0000000000
       597        10  POPC      H4Y            39.2906233134       31.7697696961       54.8885233523  MEMB      4               0.0000000000
       598        10  POPC      C35            40.0013180531       29.7531970181       54.4539271061  MEMB      4               0.0000000000
       599        10  POPC      H5X            39.4356911763       29.6229977277       53.5049114132  MEMB      4               0.0000000000
       600        10  POPC      H5Y            40.0240008996       28.7732151560       54.9830682395  MEMB      4               0.0000000000
       601        10  POPC      C36            41.4403705668       30.1685546432       54.1256828193  MEMB      4               0.0000000000
       602        10  POPC      H6X            42.0386250032       30.2353649240       55.0592281047  MEMB      4               0.0000000000
       603        10  POPC      H6Y            41.4137305037       31.1916188167       53.6889851060  MEMB      4               0.0000000000
       604        10  POPC      C37            42.1112900115       29.1933287186       53.1418130160  MEMB      4               0.0000000000
       605        10  POPC      H7X            41.3312540175       28.5442292040       52.6828690040  MEMB      4               0.0000000000
       606        10  POPC      H7Y            42.8109715961       28.5277237840       53.6945677114  MEMB      4               0.0000000000
       607        10  POPC      C38            42.8564229071       29.8967675775       51.9984658773  MEMB      4               0.0000000000
       608        10  POPC      H8X            43.3704439400       29.1341336995       51.3714714795  MEMB      4               0.0000000000
       609        10  POPC      H8Y            43.6434195610       30.5521383116       52.4356870904  MEMB      4               0.0000000000
       610        10  POPC      C39            41.9327012508       30.7434028208       51.1070604223  MEMB      4               0.0000000000
       611        10  POPC      H9X            42.3515799272       31.7749161691       51.0525233625  MEMB      4               0.0000000000
       612        10  POPC      H9Y            40.9198519000       30.8192183056       51.5538072719  MEMB      4               0.0000000000
       613        10  POPC      C310           41.7783233797       30.2203874125       49.6751429081  MEMB      4               0.0000000000
       614        10  POPC      H10X           42.7825873484       30.0061875578       49.2486570606  MEMB      4               0.0000000000
       615        10  POPC      H10Y           41.3257222602       31.0343028929       49.0629311933  MEMB      4               0.0000000000
       616        10  POPC      C311           40.8930356098       28.9733766510       49.5274506006  MEMB      4               0.0000000000
       617        10  POPC      H11X           39.8745994636       29.1755712505       49.9245737232  MEMB      4               0.0000000000
       618        10  POPC      H11Y           41.3360684927       28.1370741947       50.1098942474  MEMB      4               0.0000000000
       619        10  POPC      C312           40.8197444647       28.5955195913       48.0448840793  MEMB      4               0.0000000000
       620        10  POPC      H12X           41.8724016811       28.4942284790       47.6910038066  MEMB      4               0.0000000000
       621        10  POPC      H12Y           40.3575412998       29.4405161387       47.4929240352  MEMB      4               0.0000000000
       622        10  POPC      C313           40.0696143433       27.3085143688       47.6818575660  MEMB      4               0.0000000000
       623        10  POPC      H13X           38.9839358486       27.5154016444       47.5685541300  MEMB      4               0.0000000000
       624        10  POPC      H13Y           40.1839069752       26.5863551243       48.5148795127  MEMB      4               0.0000000000
       625        10  POPC      C314           40.6402316898       26.6838482495       46.3919681135  MEMB      4               0.0000000000
       626        10  POPC      H14X           41.7461677662       26.6079155011       46.4895277874  MEMB      4               0.0000000000
       627        10  POPC      H14Y           40.4342233351       27.3498265027       45.5297804361  MEMB      4               0.0000000000
       628        10  POPC      C315           40.0943452735       25.2962090092       46.0572179403  MEMB      4               0.0000000000
       629        10  POPC      H15X           40.0642187448       24.6813616764       46.9837412614  MEMB      4               0.0000000000
       630        10  POPC      H15Y           40.7988006372       24.7943241816       45.3527625822  MEMB      4               0.0000000000
       631        10  POPC      C316           38.7139248917       25.3498872532       45.4053344533  MEMB      4               0.0000000000
       632        10  POPC      H16X           38.0063817963       25.9380526771       46.0260423571  MEMB      4               0.0000000000
       633        10  POPC      H16Y           38.3161346147       24.3256508984       45.2889870219  MEMB      4               0.0000000000
       634        10  POPC      H16Z           38.7605779772       25.8127540525       44.3994202978  MEMB      4               0.0000000000
       635        11  POPC      N              34.0408541028       26.9623906910       63.1942748832  MEMB      5               0.0000000000
       636        11  POPC      C12            34.8650313060       27.1916938711       64.4698842334  MEMB      5               0.0000000000
       637        11  POPC      H12A           34.1894936441       27.4098027417       65.2954663255  MEMB      5               0.0000000000
       638        11  POPC      H12B           35.5023401509       28.0590380700       64.3501153930  MEMB      5               0.0000000000
       639        11  POPC      C13            33.1639520064       25.7736549258       63.4619163913  MEMB      5               0.0000000000
       640        11  POPC      H13A           32.5745858846       25.4731684810       62.6155889698  MEMB      5               0.0000000000
       641        11  POPC      H13B           33.8190914862       24.9446545018       63.7505635959  MEMB      5               0.0000000000
       642        11  POPC      H13C           32.5656700617       25.9065264920       64.3561387666  MEMB      5               0.0000000000
       643        11  POPC      C14            33.2274045651       28.1779199577       62.8510990612  MEMB      5               0.0000000000
       644        11  POPC      H14A           32.6289310412       28.0179666740       61.9609139131  MEMB      5               0.0000000000
       645        11  POPC      H14B           32.5741698234       28.4687909833       63.6630890443  MEMB      5               0.0000000000
       646        11  POPC      H14C           33.8621633696       29.0345132400       62.6300187121  MEMB      5               0.0000000000
       647        11  POPC      C15            34.9360687524       26.6280568175       62.0340557419  MEMB      5               0.0000000000
       648        11  POPC      H15A           35.4967180493       25.7184807387       62.2398725276  MEMB      5               0.0000000000
       649        11  POPC      H15B           35.6454490810       27.4181869450       61.8240031972  MEMB      5               0.0000000000
       650        11  POPC      H15C           34.3572037760       26.4561193258       61.1348212680  MEMB      5               0.0000000000
       651        11  POPC      C11            35.7438680531       26.0208902283       64.9980555322  MEMB      5               0.0000000000
       652        11  POPC      H11A           36.4440215306       26.4642558745       65.7471671275  MEMB      5               0.0000000000
       653        11  POPC      H11B           36.3630246827       25.5963437255       64.1756939302  MEMB      5               0.0000000000
       654        11  POPC      P              35.7247794381       23.8160783648       66.3465102810  MEMB      5               0.0000000000
       655        11  POPC      O13            34.8094725754       23.1120523786       67.2744158129  MEMB      5               0.0000000000
       656        11  POPC      O14            37.0120059222       24.2937969010       66.9154252526  MEMB      5               0.0000000000
       657        11  POPC      O12            34.9422750714       25.0039021526       65.6182697206  MEMB      5               0.0000000000
       658        11  POPC      O11            36.0772443488       22.8331958622       65.1520537646  MEMB      5               0.0000000000
       659        11  POPC      C1             35.3273622759       22.7436389315       63.9519322579  MEMB      5               0.0000000000
       660        11  POPC      HA             35.0890496921       23.7430920272       63.5296889757  MEMB      5               0.0000000000
       661        11  POPC      HB             34.3742091712       22.2008739570       64.1429451303  MEMB      5               0.0000000000
       662        11  POPC      C2             36.1701501466       22.0097855458       62.8837281766  MEMB      5               0.0000000000
       663        11  POPC      HS             36.6729104073       21.1568728402       63.3873627816  MEMB      5               0.0000000000
       664        11  POPC      O21            37.1542380877       22.9233245503       62.3825982229  MEMB      5               0.0000000000
       665        11  POPC      C21            38.0575399163       22.3754818481       61.6031217204  MEMB      5               0.0000000000
       666        11  POPC      O22            38.2974245357       21.1849958236       61.5247075625  MEMB      5               0.0000000000
       667        11  POPC      C22            38.8300539543       23.4573043091       60.8601639991  MEMB      5               0.0000000000
       668        11  POPC      H2R            39.0017364742       23.1121180145       59.8197337449  MEMB      5               0.0000000000
       669        11  POPC      H2S            39.8067918927       23.5566592644       61.3689306044  MEMB      5               0.0000000000
       670        11  POPC      C3             35.2754042142       21.4683654811       61.7398418749  MEMB      5               0.0000000000
       671        11  POPC      HX             34.5093611419       20.7983548807       62.1992749862  MEMB      5               0.0000000000
       672        11  POPC      HY             35.8732014690       20.8642416394       61.0223859138  MEMB      5               0.0000000000
       673        11  POPC      O31            34.6899748793       22.5911166424       61.0632551288  MEMB      5               0.0000000000
       674        11  POPC      C31            33.5870563056       22.3311222336       60.3885690042  MEMB      5               0.0000000000
       675        11  POPC      O32            32.9897366350       21.2694645586       60.3675752924  MEMB      5               0.0000000000
       676        11  POPC      C32            33.1187521049       23.6275029725       59.7229667216  MEMB      5               0.0000000000
       677        11  POPC      H2X            33.1488722653       24.4233794433       60.4945154553  MEMB      5               0.0000000000
       678        11  POPC      H2Y            32.0660442823       23.4868441372       59.4026497523  MEMB      5               0.0000000000
       679        11  POPC      C23            38.1597630130       24.8493339604       60.8715231918  MEMB      5               0.0000000000
       680        11  POPC      H3R            37.8633917527       25.1172221670       61.9130622507  MEMB      5               0.0000000000
       681        11  POPC      H3S            37.2366407574       24.8496807292       60.2523962818  MEMB      5               0.0000000000
       682        11  POPC      C24            39.1313903962       25.9314905604       60.4055163017  MEMB      5               0.0000000000
       683        11  POPC      H4R            40.1701298047       25.5431757927       60.4414923796  MEMB      5               0.0000000000
       684        11  POPC      H4S            39.0990367026       26.7900178902       61.1147725103  MEMB      5               0.0000000000
       685        11  POPC      C25            38.8431366571       26.4632897030       59.0043166361  MEMB      5               0.0000000000
       686        11  POPC      H5R            39.6307032286       27.2264731491       58.7875168750  MEMB      5               0.0000000000
       687        11  POPC      H5S            37.8610033838       26.9850597841       58.9812969596  MEMB      5               0.0000000000
       688        11  POPC      C26            38.8623009390       25.4450079701       57.8593487282  MEMB      5               0.0000000000
       689        11  POPC      H6R            37.8963027569       24.8976844066       57.8118255229  MEMB      5               0.0000000000
       690        11  POPC      H6S            39.6596795130       24.6932606209       58.0199743293  MEMB      5               0.0000000000
       691        11  POPC      C27            39.1010569929       26.2040066684       56.5468821409  MEMB      5               0.0000000000
       692        11  POPC      H7R            40.0699563760       26.7498942089       56.6215637983  MEMB      5               0.0000000000
       693        11  POPC      H7S            38.3079676277       26.9849818432       56.4803395785  MEMB      5               0.0000000000
       694        11  POPC      C28            39.0952508643       25.3322320056       55.2850056060  MEMB      5               0.0000000000
       695        11  POPC      H8R            38.1631981038       24.7238674049       55.2726623904  MEMB      5               0.0000000000
       696        11  POPC      H8S            39.9505289563       24.6233841651       55.3252071217  MEMB      5               0.0000000000
       697        11  POPC      C29            39.1861762382       26.2296300425       54.0767266073  MEMB      5               0.0000000000
       698        11  POPC      H91            40.1890163279       26.3699961483       53.6481563229  MEMB      5               0.0000000000
       699        11  POPC      C210           38.1476078526       26.8784732184       53.5255019370  MEMB      5               0.0000000000
       700        11  POPC      H101           38.3313754511       27.5388200232       52.6647893695  MEMB      5               0.0000000000
       701        11  POPC      C211           36.7196834626       26.8188107363       54.0138735227  MEMB      5               0.0000000000
       702        11  POPC      H11R           36.2566720720       27.8287022858       54.0189942953  MEMB      5               0.0000000000
       703        11  POPC      H11S           36.6626767586       26.4589424839       55.0667175883  MEMB      5               0.0000000000
       704        11  POPC      C212           35.8805226704       25.8542347163       53.1561021762  MEMB      5               0.0000000000
       705        11  POPC      H12R           35.3147670055       25.2009604186       53.8553565210  MEMB      5               0.0000000000
       706        11  POPC      H12S           36.5307664824       25.1568579301       52.5858280667  MEMB      5               0.0000000000
       707        11  POPC      C213           34.8686714784       26.5369849442       52.2150046532  MEMB      5               0.0000000000
       708        11  POPC      H13R           34.0581212713       26.9646119933       52.8466963090  MEMB      5               0.0000000000
       709        11  POPC      H13S           34.4034885955       25.7536775942       51.5767992059  MEMB      5               0.0000000000
       710        11  POPC      C214           35.4243258581       27.6660293834       51.3279742074  MEMB      5               0.0000000000
       711        11  POPC      H14R           36.5087982474       27.8133585380       51.5065125861  MEMB      5               0.0000000000
       712        11  POPC      H14S           34.9108261166       28.6059994692       51.6387811251  MEMB      5               0.0000000000
       713        11  POPC      C215           35.1970739963       27.4669828874       49.8185939655  MEMB      5               0.0000000000
       714        11  POPC      H15R           35.0441386642       28.4770503654       49.3830534086  MEMB      5               0.0000000000
       715        11  POPC      H15S           34.2658996937       26.8861728120       49.6409294565  MEMB      5               0.0000000000
       716        11  POPC      C216           36.3902496299       26.8135573002       49.1022020460  MEMB      5               0.0000000000
       717        11  POPC      H16R           37.3214502568       27.3585654823       49.3766356588  MEMB      5               0.0000000000
       718        11  POPC      H16S           36.2581146774       26.9044584748       48.0009509022  MEMB      5               0.0000000000
       719        11  POPC      C217           36.5423867796       25.3304884347       49.4507236620  MEMB      5               0.0000000000
       720        11  POPC      H17R           35.6189882855       24.8017698698       49.1302588367  MEMB      5               0.0000000000
       721        11  POPC      H17S           36.6202793470       25.2245224055       50.5509788092  MEMB      5               0.0000000000
       722        11  POPC      C218           37.7617866165       24.6411245620       48.8423862287  MEMB      5               0.0000000000
       723        11  POPC      H18R           38.6928758955       25.1677761440       49.1369768124  MEMB      5               0.0000000000
       724        11  POPC      H18S           37.6884875973       24.6212402624       47.7386212405  MEMB      5               0.0000000000
       725        11  POPC      H18T           37.8283737770       23.5922007980       49.2014473711  MEMB      5               0.0000000000
       726        11  POPC      C33            33.9768006641       24.0505440440       58.5034469259  MEMB      5               0.0000000000
       727        11  POPC      H3X            33.6515672960       23.4658864400       57.6134776905  MEMB      5               0.0000000000
       728        11  POPC      H3Y            35.0504122745       23.8032472276       58.6766954816  MEMB      5               0.0000000000
       729        11  POPC      C34            33.9176553526       25.5591668527       58.1753103944  MEMB      5               0.0000000000
       730        11  POPC      H4X            34.4122901621       25.7366640957       57.1926417895  MEMB      5               0.0000000000
       731        11  POPC      H4Y            34.5239378667       26.1050852154       58.9327433220  MEMB      5               0.0000000000
       732        11  POPC      C35            32.5095205314       26.1833960954       58.1656484488  MEMB      5               0.0000000000
       733        11  POPC      H5X            32.6045655404       27.2832342415       58.0121089321  MEMB      5               0.0000000000
       734        11  POPC      H5Y            32.0563339588       26.0416585073       59.1671706647  MEMB      5               0.0000000000
       735        11  POPC      C36            31.5320870130       25.6429972099       57.1048682562  MEMB      5               0.0000000000
       736        11  POPC      H6X            30.5455875759       26.1365695903       57.2854057069  MEMB      5               0.0000000000
       737        11  POPC      H6Y            31.3791676474       24.5485454456       57.2195480347  MEMB      5               0.0000000000
       738        11  POPC      C37            31.9390220516       25.9694938473       55.6571940284  MEMB      5               0.0000000000
       739        11  POPC      H7X            32.5740828287       26.8836029543       55.6626233595  MEMB      5               0.0000000000
       740        11  POPC      H7Y            31.0238015735       26.2095919996       55.0694232447  MEMB      5               0.0000000000
       741        11  POPC      C38            32.6807450403       24.8332111156       54.9356954227  MEMB      5               0.0000000000
       742        11  POPC      H8X            33.4401007129       24.3786995214       55.6051753005  MEMB      5               0.0000000000
       743        11  POPC      H8Y            33.2144082474       25.2837694390       54.0737232207  MEMB      5               0.0000000000
       744        11  POPC      C39            31.7521989240       23.7429898223       54.3798768441  MEMB      5               0.0000000000
       745        11  POPC      H9X            31.1225854456       24.1976835868       53.5810506744  MEMB      5               0.0000000000
       746        11  POPC      H9Y            31.0705266404       23.4001176371       55.1869264521  MEMB      5               0.0000000000
       747        11  POPC      C310           32.4977832682       22.5291173510       53.7892179008  MEMB      5               0.0000000000
       748        11  POPC      H10X           31.7649982310       21.8895887862       53.2493867837  MEMB      5               0.0000000000
       749        11  POPC      H10Y           32.9249976580       21.9173831878       54.6135724569  MEMB      5               0.0000000000
       750        11  POPC      C311           33.6159802485       22.9216155491       52.8170963097  MEMB      5               0.0000000000
       751        11  POPC      H11X           34.5296482902       23.1860016198       53.3942782385  MEMB      5               0.0000000000
       752        11  POPC      H11Y           33.2853774115       23.8316454425       52.2638287523  MEMB      5               0.0000000000
       753        11  POPC      C312           33.9641664206       21.8527405761       51.7707439447  MEMB      5               0.0000000000
       754        11  POPC      H12X           33.0470013784       21.6265668789       51.1797723067  MEMB      5               0.0000000000
       755        11  POPC      H12Y           34.2996380585       20.9132255108       52.2603672820  MEMB      5               0.0000000000
       756        11  POPC      C313           35.0561777091       22.3800134567       50.8308025364  MEMB      5               0.0000000000
       757        11  POPC      H13X           36.0353149658       22.4200194805       51.3531778101  MEMB      5               0.0000000000
       758        11  POPC      H13Y           34.7791469477       23.4335967034       50.5955340921  MEMB      5               0.0000000000
       759        11  POPC      C314           35.1792893652       21.6482101033       49.4859154556  MEMB      5               0.0000000000
       760        11  POPC      H14X           35.7009962520       22.3512249966       48.7976925251  MEMB      5               0.0000000000
       761        11  POPC      H14Y           34.1721128751       21.4560270790       49.0574417207  MEMB      5               0.0000000000
       762        11  POPC      C315           36.0211004202       20.3672802477       49.4977210019  MEMB      5               0.0000000000
       763        11  POPC      H15X           35.3789469853       19.5090988881       49.1992132336  MEMB      5               0.0000000000
       764        11  POPC      H15Y           36.3767980898       20.1647721498       50.5315090701  MEMB      5               0.0000000000
       765        11  POPC      C316           37.2187086026       20.4476628254       48.5423003639  MEMB      5               0.0000000000
       766        11  POPC      H16X           37.7833483886       19.4914879288       48.5349091259  MEMB      5               0.0000000000
       767        11  POPC      H16Y           37.9084140605       21.2607150337       48.8552332606  MEMB      5               0.0000000000
       768        11  POPC      H16Z           36.8817446133       20.6587311442       47.5061425510  MEMB      5               0.0000000000
       769        12  POPC      N              31.4534444479       42.5283049079       63.7666669299  MEMB      6               0.0000000000
       770        12  POPC      C12            30.6445364449       43.3516088405       64.7545093461  MEMB      6               0.0000000000
       771        12  POPC      H12A           31.2939910455       44.0888923212       65.2275475098  MEMB      6               0.0000000000
       772        12  POPC      H12B           30.2812997444       42.7231694866       65.5656765206  MEMB      6               0.0000000000
       773        12  POPC      C13            31.9950152439       43.4434398894       62.7197248444  MEMB      6               0.0000000000
       774        12  POPC      H13A           32.6188938625       44.2088214155       63.1838973058  MEMB      6               0.0000000000
       775        12  POPC      H13B           32.5613996889       42.9102373417       61.9713870566  MEMB      6               0.0000000000
       776        12  POPC      H13C           31.1726494608       43.9703155950       62.2462821896  MEMB      6               0.0000000000
       777        12  POPC      C14            32.6221173120       41.9426009737       64.4900068421  MEMB      6               0.0000000000
       778        12  POPC      H14A           33.0368163171       41.1278985342       63.9175203627  MEMB      6               0.0000000000
       779        12  POPC      H14B           33.3741153357       42.7067447648       64.6447526739  MEMB      6               0.0000000000
       780        12  POPC      H14C           32.3068895368       41.5607158629       65.4629978358  MEMB      6               0.0000000000
       781        12  POPC      C15            30.5943225110       41.4464403075       63.2077282486  MEMB      6               0.0000000000
       782        12  POPC      H15A           30.2597308489       40.7690806458       63.9999538553  MEMB      6               0.0000000000
       783        12  POPC      H15B           31.1013038459       40.8717892012       62.4525062168  MEMB      6               0.0000000000
       784        12  POPC      H15C           29.6925010989       41.8489163628       62.7445222481  MEMB      6               0.0000000000
       785        12  POPC      C11            29.4457804589       44.1471232842       64.2134962748  MEMB      6               0.0000000000
       786        12  POPC      H11A           28.6094950084       43.4443265605       63.9891954012  MEMB      6               0.0000000000
       787        12  POPC      H11B           29.6949188120       44.6883349729       63.2741627376  MEMB      6               0.0000000000
       788        12  POPC      P              29.9197785219       46.3574240277       65.5101392108  MEMB      6               0.0000000000
       789        12  POPC      O13            31.3329817615       45.9320741999       65.6475100842  MEMB      6               0.0000000000
       790        12  POPC      O14            29.2662863384       47.0669521563       66.6468976333  MEMB      6               0.0000000000
       791        12  POPC      O12            29.0441917941       45.0609195632       65.2325371078  MEMB      6               0.0000000000
       792        12  POPC      O11            29.7161384202       47.1144213578       64.1112980486  MEMB      6               0.0000000000
       793        12  POPC      C1             28.4189889234       47.6130063766       63.7527563625  MEMB      6               0.0000000000
       794        12  POPC      HA             28.2878744663       48.6083277728       64.2316240914  MEMB      6               0.0000000000
       795        12  POPC      HB             27.5966697909       46.9739233278       64.1431536059  MEMB      6               0.0000000000
       796        12  POPC      C2             28.2090209881       47.8306609431       62.2068386243  MEMB      6               0.0000000000
       797        12  POPC      HS             27.2560126997       48.3968172079       62.0944880750  MEMB      6               0.0000000000
       798        12  POPC      O21            28.1301339910       46.6208605929       61.4327080684  MEMB      6               0.0000000000
       799        12  POPC      C21            27.4296264801       45.5741198158       61.8083330304  MEMB      6               0.0000000000
       800        12  POPC      O22            26.5408569694       45.5256561432       62.6381313191  MEMB      6               0.0000000000
       801        12  POPC      C22            27.8923312965       44.3574592972       60.9752590577  MEMB      6               0.0000000000
       802        12  POPC      H2R            27.2894683355       43.4852855331       61.3070893380  MEMB      6               0.0000000000
       803        12  POPC      H2S            28.9551799421       44.1582061249       61.2117462259  MEMB      6               0.0000000000
       804        12  POPC      C3             29.3216439542       48.7136924708       61.5469711642  MEMB      6               0.0000000000
       805        12  POPC      HX             29.5867676825       49.5253830314       62.2600399272  MEMB      6               0.0000000000
       806        12  POPC      HY             28.9073822320       49.2023051979       60.6345189343  MEMB      6               0.0000000000
       807        12  POPC      O31            30.5040703054       47.9362202745       61.2569912117  MEMB      6               0.0000000000
       808        12  POPC      C31            30.5116182944       47.3250114825       60.0831970498  MEMB      6               0.0000000000
       809        12  POPC      O32            29.9844905758       47.7264429946       59.0616992748  MEMB      6               0.0000000000
       810        12  POPC      C32            31.2059905851       45.9682683553       60.2547953301  MEMB      6               0.0000000000
       811        12  POPC      H2X            30.5534526687       45.1942595318       59.8162053162  MEMB      6               0.0000000000
       812        12  POPC      H2Y            31.2674085139       45.7865049142       61.3499459741  MEMB      6               0.0000000000
       813        12  POPC      C23            27.7264553201       44.5344335111       59.4383069743  MEMB      6               0.0000000000
       814        12  POPC      H3R            28.2688703508       45.4391267191       59.0827472236  MEMB      6               0.0000000000
       815        12  POPC      H3S            26.6426269784       44.7043357933       59.2318242017  MEMB      6               0.0000000000
       816        12  POPC      C24            28.1824356785       43.3167139775       58.6013259195  MEMB      6               0.0000000000
       817        12  POPC      H4R            27.5358319869       43.2878588888       57.6920677810  MEMB      6               0.0000000000
       818        12  POPC      H4S            28.0023116473       42.3760438709       59.1615619044  MEMB      6               0.0000000000
       819        12  POPC      C25            29.6433058146       43.3648450332       58.1030363755  MEMB      6               0.0000000000
       820        12  POPC      H5R            30.3412408541       43.1675103300       58.9433506923  MEMB      6               0.0000000000
       821        12  POPC      H5S            29.8392337337       44.3917137413       57.7196329069  MEMB      6               0.0000000000
       822        12  POPC      C26            29.9222942626       42.3851269612       56.9452082914  MEMB      6               0.0000000000
       823        12  POPC      H6R            29.1596168536       42.5915943539       56.1587328450  MEMB      6               0.0000000000
       824        12  POPC      H6S            29.7762793382       41.3406526356       57.2893370436  MEMB      6               0.0000000000
       825        12  POPC      C27            31.3154080584       42.5351006476       56.2917547678  MEMB      6               0.0000000000
       826        12  POPC      H7R            32.0952495791       42.0761122073       56.9352844984  MEMB      6               0.0000000000
       827        12  POPC      H7S            31.5336694465       43.6208136301       56.2332520223  MEMB      6               0.0000000000
       828        12  POPC      C28            31.3916233460       41.9604105149       54.8545592836  MEMB      6               0.0000000000
       829        12  POPC      H8R            30.5034134910       42.3533060279       54.3106456569  MEMB      6               0.0000000000
       830        12  POPC      H8S            31.2860726042       40.8543846452       54.9133887284  MEMB      6               0.0000000000
       831        12  POPC      C29            32.6256212863       42.3503406508       54.0725641232  MEMB      6               0.0000000000
       832        12  POPC      H91            33.0886092357       43.2976015914       54.3900440189  MEMB      6               0.0000000000
       833        12  POPC      C210           33.2004957892       41.6605129410       53.0639248094  MEMB      6               0.0000000000
       834        12  POPC      H101           34.1117901447       42.0694343139       52.6007198984  MEMB      6               0.0000000000
       835        12  POPC      C211           32.7532527252       40.3407292633       52.4780153191  MEMB      6               0.0000000000
       836        12  POPC      H11R           31.8434857920       39.9474726408       52.9817183829  MEMB      6               0.0000000000
       837        12  POPC      H11S           33.5502406170       39.5831247481       52.6688999142  MEMB      6               0.0000000000
       838        12  POPC      C212           32.4820769029       40.3309848112       50.9538789769  MEMB      6               0.0000000000
       839        12  POPC      H12R           32.4272766452       39.2630639322       50.6362614303  MEMB      6               0.0000000000
       840        12  POPC      H12S           33.3269121072       40.7930752032       50.3989659501  MEMB      6               0.0000000000
       841        12  POPC      C213           31.1563367588       41.0019745687       50.5585087854  MEMB      6               0.0000000000
       842        12  POPC      H13R           31.1892896739       42.0772965274       50.8414684901  MEMB      6               0.0000000000
       843        12  POPC      H13S           30.3358087550       40.5261876723       51.1415743527  MEMB      6               0.0000000000
       844        12  POPC      C214           30.8187125745       40.8786057724       49.0628421393  MEMB      6               0.0000000000
       845        12  POPC      H14R           30.7974335999       39.8036768174       48.7733240014  MEMB      6               0.0000000000
       846        12  POPC      H14S           31.6181693142       41.3714079341       48.4676067021  MEMB      6               0.0000000000
       847        12  POPC      C215           29.4563296838       41.5190838110       48.7370179078  MEMB      6               0.0000000000
       848        12  POPC      H15R           29.4632982635       42.5840860067       49.0514862574  MEMB      6               0.0000000000
       849        12  POPC      H15S           28.6902697173       40.9891648052       49.3496453933  MEMB      6               0.0000000000
       850        12  POPC      C216           29.0300186810       41.4411278585       47.2594597276  MEMB      6               0.0000000000
       851        12  POPC      H16R           27.9204092307       41.3360425773       47.2285144620  MEMB      6               0.0000000000
       852        12  POPC      H16S           29.4480471436       40.5225305138       46.8014600467  MEMB      6               0.0000000000
       853        12  POPC      C217           29.3745953514       42.6846670795       46.4139264615  MEMB      6               0.0000000000
       854        12  POPC      H17R           28.7913233024       43.5455856397       46.8112689753  MEMB      6               0.0000000000
       855        12  POPC      H17S           29.0039720183       42.5130944579       45.3777057286  MEMB      6               0.0000000000
       856        12  POPC      C218           30.8594545718       43.0692155470       46.3486125187  MEMB      6               0.0000000000
       857        12  POPC      H18R           31.0053282491       43.9425430487       45.6797513426  MEMB      6               0.0000000000
       858        12  POPC      H18S           31.4698414128       42.2392459456       45.9434866596  MEMB      6               0.0000000000
       859        12  POPC      H18T           31.2490730081       43.3325970029       47.3546133708  MEMB      6               0.0000000000
       860        12  POPC      C33            32.6290281276       45.8999287419       59.6602348819  MEMB      6               0.0000000000
       861        12  POPC      H3X            33.2146573956       45.1756053510       60.2686613554  MEMB      6               0.0000000000
       862        12  POPC      H3Y            33.1148037960       46.8876287519       59.7585766175  MEMB      6               0.0000000000
       863        12  POPC      C34            32.7247410505       45.4800649152       58.1900104708  MEMB      6               0.0000000000
       864        12  POPC      H4X            32.2748900798       44.4744828498       58.0585130714  MEMB      6               0.0000000000
       865        12  POPC      H4Y            33.7982463294       45.3955906205       57.9080720811  MEMB      6               0.0000000000
       866        12  POPC      C35            32.0626494514       46.4726330242       57.2278827200  MEMB      6               0.0000000000
       867        12  POPC      H5X            32.2486890390       47.5212740996       57.5541123146  MEMB      6               0.0000000000
       868        12  POPC      H5Y            30.9626636341       46.3108727279       57.2696016267  MEMB      6               0.0000000000
       869        12  POPC      C36            32.5515620928       46.3211429919       55.7867121461  MEMB      6               0.0000000000
       870        12  POPC      H6X            32.7764547183       45.2518511618       55.5810160482  MEMB      6               0.0000000000
       871        12  POPC      H6Y            33.5013324235       46.8848054790       55.6518485558  MEMB      6               0.0000000000
       872        12  POPC      C37            31.5275663035       46.8002429116       54.7525476677  MEMB      6               0.0000000000
       873        12  POPC      H7X            31.9953384903       46.6653477020       53.7531841619  MEMB      6               0.0000000000
       874        12  POPC      H7Y            31.3220185977       47.8856286634       54.8753487600  MEMB      6               0.0000000000
       875        12  POPC      C38            30.2080445151       46.0107455689       54.7833359709  MEMB      6               0.0000000000
       876        12  POPC      H8X            29.4847564013       46.5049554359       55.4676967136  MEMB      6               0.0000000000
       877        12  POPC      H8Y            30.3950722280       44.9895439017       55.1741525555  MEMB      6               0.0000000000
       878        12  POPC      C39            29.6132727399       45.8597942515       53.3852163607  MEMB      6               0.0000000000
       879        12  POPC      H9X            30.4023591137       45.4163438700       52.7371569992  MEMB      6               0.0000000000
       880        12  POPC      H9Y            29.3733133717       46.8745075962       52.9946142255  MEMB      6               0.0000000000
       881        12  POPC      C310           28.3541719182       44.9859791138       53.3135081539  MEMB      6               0.0000000000
       882        12  POPC      H10X           27.6656337535       45.2819370802       54.1379237371  MEMB      6               0.0000000000
       883        12  POPC      H10Y           28.6253609959       43.9172313106       53.4606128418  MEMB      6               0.0000000000
       884        12  POPC      C311           27.6270295714       45.1734589829       51.9721048297  MEMB      6               0.0000000000
       885        12  POPC      H11X           27.3959053162       46.2612441777       51.8976025254  MEMB      6               0.0000000000
       886        12  POPC      H11Y           26.6598330383       44.6260270066       51.9658141123  MEMB      6               0.0000000000
       887        12  POPC      C312           28.4642513003       44.7710208815       50.7458033568  MEMB      6               0.0000000000
       888        12  POPC      H12X           28.3473036196       43.6861416790       50.5414585121  MEMB      6               0.0000000000
       889        12  POPC      H12Y           29.5412223337       44.9371640687       50.9593478028  MEMB      6               0.0000000000
       890        12  POPC      C313           28.1508713672       45.6104998084       49.4987043027  MEMB      6               0.0000000000
       891        12  POPC      H13X           27.8112756645       46.6218517393       49.8168737021  MEMB      6               0.0000000000
       892        12  POPC      H13Y           27.3208917511       45.1466773738       48.9225964454  MEMB      6               0.0000000000
       893        12  POPC      C314           29.3822631756       45.8230234175       48.6049744719  MEMB      6               0.0000000000
       894        12  POPC      H14X           29.7420111510       44.8440287861       48.2328057076  MEMB      6               0.0000000000
       895        12  POPC      H14Y           30.2015640054       46.2653171163       49.2141055896  MEMB      6               0.0000000000
       896        12  POPC      C315           29.0890543690       46.7624456889       47.4305941221  MEMB      6               0.0000000000
       897        12  POPC      H15X           28.8472347293       47.7664385729       47.8467582053  MEMB      6               0.0000000000
       898        12  POPC      H15Y           28.1928748454       46.3857445746       46.8883614252  MEMB      6               0.0000000000
       899        12  POPC      C316           30.2390749206       46.9177106114       46.4389308025  MEMB      6               0.0000000000
       900        12  POPC      H16X           30.3929894799       45.9803454966       45.8668533700  MEMB      6               0.0000000000
       901        12  POPC      H16Y           31.1766106932       47.1597689631       46.9796582622  MEMB      6               0.0000000000
       902        12  POPC      H16Z           30.0271902681       47.7340221060       45.7153851364  MEMB      6               0.0000000000
       903        13  POPS      N              44.2459968935       37.6957278887       66.2962843318  MEMB      7               0.0000000000
       904        13  POPS      HN1            43.5908117514       36.9922682083       66.7091530346  MEMB      7               0.0000000000
       905        13  POPS      HN2            45.2248841429       37.4998395535       66.6132560018  MEMB      7               0.0000000000
       906        13  POPS      HN3            43.9677505123       38.6749081863       66.4722042336  MEMB      7               0.0000000000
       907        13  POPS      C12            44.3410089540       37.4428165890       64.8302653511  MEMB      7               0.0000000000
       908        13  POPS      H12A           43.3804786896       37.6272337655       64.3737282609  MEMB      7               0.0000000000
       909        13  POPS      C13            44.7068371395       35.9804742803       64.5636260275  MEMB      7               0.0000000000
       910        13  POPS      O13A           45.1993919030       35.3022249274       65.5122297224  MEMB      7               0.0000000000
       911        13  POPS      O13B           44.4801328413       35.5236914775       63.4136370622  MEMB      7               0.0000000000
       912        13  POPS      C11            45.4599592736       38.3550463845       64.2271606804  MEMB      7               0.0000000000
       913        13  POPS      H11A           44.9805978221       39.3453795861       64.0689240505  MEMB      7               0.0000000000
       914        13  POPS      H11B           45.7509253729       37.9618842201       63.2263565364  MEMB      7               0.0000000000
       915        13  POPS      P              47.6004830140       39.6916552388       65.0631983480  MEMB      7               0.0000000000
       916        13  POPS      O13            48.8553760420       39.4513481422       64.3138548486  MEMB      7               0.0000000000
       917        13  POPS      O14            47.7023796406       40.1893111025       66.4615808200  MEMB      7               0.0000000000
       918        13  POPS      O12            46.6275193872       38.4382895087       65.0636328906  MEMB      7               0.0000000000
       919        13  POPS      O11            46.7216145983       40.7527929112       64.2539173829  MEMB      7               0.0000000000
       920        13  POPS      C1             47.1527132570       41.2421747300       62.9834880985  MEMB      7               0.0000000000
       921        13  POPS      HA             47.9793638598       40.6371349739       62.5371357558  MEMB      7               0.0000000000
       922        13  POPS      HB             47.5182819827       42.2687578519       63.1476273119  MEMB      7               0.0000000000
       923        13  POPS      C2             46.0732400182       41.3745801803       61.8604417075  MEMB      7               0.0000000000
       924        13  POPS      HS             45.3307943296       42.1355658476       62.1878191119  MEMB      7               0.0000000000
       925        13  POPS      O21            45.4113728626       40.1180150375       61.5964236925  MEMB      7               0.0000000000
       926        13  POPS      C21            44.5292672056       40.2296203923       60.6103958184  MEMB      7               0.0000000000
       927        13  POPS      O22            44.0103049249       41.2675208352       60.2399640846  MEMB      7               0.0000000000
       928        13  POPS      C22            44.2716129304       38.8745868158       59.9719464370  MEMB      7               0.0000000000
       929        13  POPS      H2R            43.4704684686       38.3611515396       60.5399406670  MEMB      7               0.0000000000
       930        13  POPS      H2S            45.1994958209       38.2780323702       60.0519606094  MEMB      7               0.0000000000
       931        13  POPS      C3             46.8108057604       41.8907813866       60.5891809752  MEMB      7               0.0000000000
       932        13  POPS      HX             47.3237476622       42.8435237794       60.8525973114  MEMB      7               0.0000000000
       933        13  POPS      HY             46.1025157620       42.1307232243       59.7673191048  MEMB      7               0.0000000000
       934        13  POPS      O31            47.7795949173       40.8961665596       60.1919062909  MEMB      7               0.0000000000
       935        13  POPS      C31            48.3650505703       41.1852428529       59.0496833884  MEMB      7               0.0000000000
       936        13  POPS      O32            48.1049776951       42.1454611680       58.3471664608  MEMB      7               0.0000000000
       937        13  POPS      C32            49.4792629083       40.1842070071       58.7276853011  MEMB      7               0.0000000000
       938        13  POPS      H2X            50.1282307993       40.0672100398       59.6209180254  MEMB      7               0.0000000000
       939        13  POPS      H2Y            50.0731408585       40.6528432457       57.9122370861  MEMB      7               0.0000000000
       940        13  POPS      C23            43.8828353376       39.0688617944       58.4909619425  MEMB      7               0.0000000000
       941        13  POPS      H3R            44.6545404271       39.6949016008       57.9830368886  MEMB      7               0.0000000000
       942        13  POPS      H3S            42.9193088942       39.6220933362       58.4221785883  MEMB      7               0.0000000000
       943        13  POPS      C24            43.7606799780       37.7466323770       57.7303069503  MEMB      7               0.0000000000
       944        13  POPS      H4R            43.1821721570       37.0304953727       58.3513101246  MEMB      7               0.0000000000
       945        13  POPS      H4S            44.7689521607       37.3103528357       57.5965191847  MEMB      7               0.0000000000
       946        13  POPS      C25            43.1149421003       37.8902917484       56.3428529055  MEMB      7               0.0000000000
       947        13  POPS      H5R            42.0450746343       38.1671509764       56.4708830110  MEMB      7               0.0000000000
       948        13  POPS      H5S            43.1508138984       36.9056383612       55.8224872265  MEMB      7               0.0000000000
       949        13  POPS      C26            43.7626362992       38.9530790642       55.4409334644  MEMB      7               0.0000000000
       950        13  POPS      H6R            43.5688425745       39.9529051916       55.8895936337  MEMB      7               0.0000000000
       951        13  POPS      H6S            43.2575493623       38.9416681611       54.4488034347  MEMB      7               0.0000000000
       952        13  POPS      C27            45.2747734686       38.7698461758       55.2271677021  MEMB      7               0.0000000000
       953        13  POPS      H7R            45.4502613313       37.8047045677       54.7017680456  MEMB      7               0.0000000000
       954        13  POPS      H7S            45.8025854997       38.7123542831       56.2043225511  MEMB      7               0.0000000000
       955        13  POPS      C28            45.9008108450       39.9060363379       54.3972115064  MEMB      7               0.0000000000
       956        13  POPS      H8R            45.3821750435       39.9215985970       53.4122879584  MEMB      7               0.0000000000
       957        13  POPS      H8S            46.9661328647       39.6538683446       54.1963755165  MEMB      7               0.0000000000
       958        13  POPS      C29            45.8106287708       41.2313005073       55.1194597246  MEMB      7               0.0000000000
       959        13  POPS      H91            46.3789365294       41.2818755925       56.0625169436  MEMB      7               0.0000000000
       960        13  POPS      C210           45.1294410157       42.3244950208       54.7207960226  MEMB      7               0.0000000000
       961        13  POPS      H101           45.1439754318       43.2142594688       55.3698192101  MEMB      7               0.0000000000
       962        13  POPS      C211           44.3105206671       42.4548056550       53.4585093296  MEMB      7               0.0000000000
       963        13  POPS      H11R           43.6603945856       43.3569410873       53.4985072813  MEMB      7               0.0000000000
       964        13  POPS      H11S           43.6400883614       41.5741601527       53.3332549768  MEMB      7               0.0000000000
       965        13  POPS      C212           45.2395499620       42.5500583906       52.2343520432  MEMB      7               0.0000000000
       966        13  POPS      H12R           45.8867785243       41.6449926902       52.2244496669  MEMB      7               0.0000000000
       967        13  POPS      H12S           45.9169363011       43.4281110095       52.3164290584  MEMB      7               0.0000000000
       968        13  POPS      C213           44.5321633225       42.5814658682       50.8723678150  MEMB      7               0.0000000000
       969        13  POPS      H13R           44.3113010981       43.6329861656       50.5937845055  MEMB      7               0.0000000000
       970        13  POPS      H13S           43.5639649223       42.0404150528       50.9421201586  MEMB      7               0.0000000000
       971        13  POPS      C214           45.4028083965       41.9007778798       49.8002815437  MEMB      7               0.0000000000
       972        13  POPS      H14R           45.3762336500       40.8012749151       49.9673314082  MEMB      7               0.0000000000
       973        13  POPS      H14S           46.4586557791       42.2234814541       49.9559922085  MEMB      7               0.0000000000
       974        13  POPS      C215           45.0368304159       42.2091356051       48.3405910232  MEMB      7               0.0000000000
       975        13  POPS      H15R           45.6139712216       41.5357888451       47.6674028666  MEMB      7               0.0000000000
       976        13  POPS      H15S           45.3730134384       43.2522233187       48.1331388969  MEMB      7               0.0000000000
       977        13  POPS      C216           43.5458549453       42.1319004955       47.9716472426  MEMB      7               0.0000000000
       978        13  POPS      H16R           43.4622094275       42.5964244654       46.9626604023  MEMB      7               0.0000000000
       979        13  POPS      H16S           42.9472104175       42.7539816182       48.6628773281  MEMB      7               0.0000000000
       980        13  POPS      C217           42.9343144785       40.7256101644       47.8617078191  MEMB      7               0.0000000000
       981        13  POPS      H17R           43.6293496772       40.0696452742       47.2935660224  MEMB      7               0.0000000000
       982        13  POPS      H17S           42.0037175408       40.8189049640       47.2509442175  MEMB      7               0.0000000000
       983        13  POPS      C218           42.5380742616       40.0689983454       49.1892210795  MEMB      7               0.0000000000
       984        13  POPS      H18R           43.4261902620       39.8840864289       49.8268921211  MEMB      7               0.0000000000
       985        13  POPS      H18S           42.0385135676       39.0946511145       48.9987453986  MEMB      7               0.0000000000
       986        13  POPS      H18T           41.8317350850       40.7216132520       49.7476270613  MEMB      7               0.0000000000
       987        13  POPS      C33            48.9541996731       38.8133112264       58.2439946182  MEMB      7               0.0000000000
       988        13  POPS      H3X            49.5545379201       38.4832898567       57.3651260381  MEMB      7               0.0000000000
       989        13  POPS      H3Y            47.9007489839       38.9058447011       57.8993966675  MEMB      7               0.0000000000
       990        13  POPS      C34            49.0784747138       37.7290849701       59.3230721304  MEMB      7               0.0000000000
       991        13  POPS      H4X            48.5427908233       38.0557094260       60.2452771594  MEMB      7               0.0000000000
       992        13  POPS      H4Y            50.1529380976       37.6209194771       59.5992172116  MEMB      7               0.0000000000
       993        13  POPS      C35            48.5367032985       36.3540947168       58.8948071084  MEMB      7               0.0000000000
       994        13  POPS      H5X            48.6997060394       35.6357451132       59.7335794175  MEMB      7               0.0000000000
       995        13  POPS      H5Y            49.0979721213       35.9797114663       58.0113552527  MEMB      7               0.0000000000
       996        13  POPS      C36            47.0390775570       36.4158466043       58.5863817500  MEMB      7               0.0000000000
       997        13  POPS      H6X            46.8595182321       37.0814781273       57.7161846574  MEMB      7               0.0000000000
       998        13  POPS      H6Y            46.5613198921       36.8746483361       59.4814416727  MEMB      7               0.0000000000
       999        13  POPS      C37            46.3534087098       35.0663233883       58.3554432011  MEMB      7               0.0000000000
      1000        13  POPS      H7X            45.2499519383       35.2129789352       58.4100729754  MEMB      7               0.0000000000
      1001        13  POPS      H7Y            46.6254243072       34.3776561355       59.1864208304  MEMB      7               0.0000000000
      1002        13  POPS      C38            46.6670560766       34.3836355202       57.0177816453  MEMB      7               0.0000000000
      1003        13  POPS      H8X            46.0360270653       33.4678188502       56.9958809796  MEMB      7               0.0000000000
      1004        13  POPS      H8Y            47.7345549732       34.0698797369       56.9805182862  MEMB      7               0.0000000000
      1005        13  POPS      C39            46.3202900244       35.1837589635       55.7546349711  MEMB      7               0.0000000000
      1006        13  POPS      H9X            47.1273684368       35.9198673597       55.5481433723  MEMB      7               0.0000000000
      1007        13  POPS      H9Y            45.3736749182       35.7441879515       55.9182831717  MEMB      7               0.0000000000
      1008        13  POPS      C310           46.1258933412       34.2391796135       54.5596658299  MEMB      7               0.0000000000
      1009        13  POPS      H10X           45.2156059958       33.6265247809       54.7543120854  MEMB      7               0.0000000000
      1010        13  POPS      H10Y           46.9945397650       33.5449279904       54.5060822219  MEMB      7               0.0000000000
      1011        13  POPS      C311           45.9677034625       34.9314119018       53.2010183072  MEMB      7               0.0000000000
      1012        13  POPS      H11X           45.2954051901       35.8116162417       53.2841306258  MEMB      7               0.0000000000
      1013        13  POPS      H11Y           45.4864629112       34.2009299733       52.5088541056  MEMB      7               0.0000000000
      1014        13  POPS      C312           47.3108902093       35.3358126879       52.5758806005  MEMB      7               0.0000000000
      1015        13  POPS      H12X           48.0313926059       34.4994433690       52.7284970520  MEMB      7               0.0000000000
      1016        13  POPS      H12Y           47.7243269569       36.2293581108       53.0917489258  MEMB      7               0.0000000000
      1017        13  POPS      C313           47.2065323082       35.5849125730       51.0652360409  MEMB      7               0.0000000000
      1018        13  POPS      H13X           46.6304342879       36.5172218098       50.8734739699  MEMB      7               0.0000000000
      1019        13  POPS      H13Y           46.6486780164       34.7394866060       50.6010093468  MEMB      7               0.0000000000
      1020        13  POPS      C314           48.5813198810       35.6675150394       50.3903290524  MEMB      7               0.0000000000
      1021        13  POPS      H14X           49.1747500123       34.7603397722       50.6424503039  MEMB      7               0.0000000000
      1022        13  POPS      H14Y           49.1311080240       36.5486048719       50.7890787885  MEMB      7               0.0000000000
      1023        13  POPS      C315           48.4737746154       35.7786066685       48.8660377343  MEMB      7               0.0000000000
      1024        13  POPS      H15X           47.8650758866       36.6775001025       48.6325332826  MEMB      7               0.0000000000
      1025        13  POPS      H15Y           47.9282662030       34.8929498101       48.4692463722  MEMB      7               0.0000000000
      1026        13  POPS      C316           49.8272540856       35.8988759067       48.1682260450  MEMB      7               0.0000000000
      1027        13  POPS      H16X           50.3928562712       36.7605675913       48.5843559006  MEMB      7               0.0000000000
      1028        13  POPS      H16Y           49.6955090543       36.0618413444       47.0767215056  MEMB      7               0.0000000000
      1029        13  POPS      H16Z           50.4298499350       34.9771569048       48.3193590515  MEMB      7               0.0000000000
      1030        14  POPC      N              17.7074247321       33.0278868891       65.2048782014  MEMB      8               0.0000000000
      1031        14  POPC      C12            19.1929923022       33.0252947603       65.5634260352  MEMB      8               0.0000000000
      1032        14  POPC      H12A           19.2876082146       33.0944749783       66.6392636357  MEMB      8               0.0000000000
      1033        14  POPC      H12B           19.6648201515       33.8917352706       65.1185563118  MEMB      8               0.0000000000
      1034        14  POPC      C13            17.5177125158       32.7686708509       63.7408861719  MEMB      8               0.0000000000
      1035        14  POPC      H13A           16.4850965633       32.9009579548       63.4387097037  MEMB      8               0.0000000000
      1036        14  POPC      H13B           18.1279757899       33.4189106296       63.1357185962  MEMB      8               0.0000000000
      1037        14  POPC      H13C           17.8184423481       31.7402041480       63.5066897472  MEMB      8               0.0000000000
      1038        14  POPC      C14            17.0322950179       31.9227908691       65.9659654638  MEMB      8               0.0000000000
      1039        14  POPC      H14A           17.0907406092       32.0305982308       67.0436995282  MEMB      8               0.0000000000
      1040        14  POPC      H14B           15.9962362589       31.8327393386       65.6747851852  MEMB      8               0.0000000000
      1041        14  POPC      H14C           17.5445190223       30.9918604402       65.7116807649  MEMB      8               0.0000000000
      1042        14  POPC      C15            17.0067959796       34.2949956757       65.5400822451  MEMB      8               0.0000000000
      1043        14  POPC      H15A           17.4779123205       35.1587126311       65.1039589251  MEMB      8               0.0000000000
      1044        14  POPC      H15B           16.8825968375       34.4264858891       66.6108980341  MEMB      8               0.0000000000
      1045        14  POPC      H15C           15.9822521755       34.2550286531       65.1496404525  MEMB      8               0.0000000000
      1046        14  POPC      C11            20.0752205020       31.8092604254       65.1419574555  MEMB      8               0.0000000000
      1047        14  POPC      H11A           21.1212778075       32.0256798401       65.4535908917  MEMB      8               0.0000000000
      1048        14  POPC      H11B           20.1124962908       31.7727095642       64.0225427077  MEMB      8               0.0000000000
      1049        14  POPC      P              19.4421914218       29.3286594672       64.7982017885  MEMB      8               0.0000000000
      1050        14  POPC      O13            18.9620816481       28.1564305294       65.5740775216  MEMB      8               0.0000000000
      1051        14  POPC      O14            20.5825918142       29.1344384588       63.8789133527  MEMB      8               0.0000000000
      1052        14  POPC      O12            19.6777332995       30.5732465039       65.7664490982  MEMB      8               0.0000000000
      1053        14  POPC      O11            18.2266860648       29.9206638104       63.9573623468  MEMB      8               0.0000000000
      1054        14  POPC      C1             17.1166499902       29.1304188255       63.5439025773  MEMB      8               0.0000000000
      1055        14  POPC      HA             16.1799195921       29.6132164927       63.8895105302  MEMB      8               0.0000000000
      1056        14  POPC      HB             17.1334189361       28.1040953422       63.9873388975  MEMB      8               0.0000000000
      1057        14  POPC      C2             17.0517287578       28.9615363433       62.0017791792  MEMB      8               0.0000000000
      1058        14  POPC      HS             16.2608667363       28.1964456701       61.8101362155  MEMB      8               0.0000000000
      1059        14  POPC      O21            18.3370699802       28.5032926447       61.5424666106  MEMB      8               0.0000000000
      1060        14  POPC      C21            18.3038152974       28.1701251760       60.2737221809  MEMB      8               0.0000000000
      1061        14  POPC      O22            17.3100808423       27.7949331610       59.6779220121  MEMB      8               0.0000000000
      1062        14  POPC      C22            19.6710212621       28.3971562713       59.6450558899  MEMB      8               0.0000000000
      1063        14  POPC      H2R            20.4308804675       27.9648315895       60.3304798369  MEMB      8               0.0000000000
      1064        14  POPC      H2S            19.8474216283       29.4839443109       59.5654359954  MEMB      8               0.0000000000
      1065        14  POPC      C3             16.6327771444       30.2753184900       61.2290655621  MEMB      8               0.0000000000
      1066        14  POPC      HX             15.8634913784       30.7963086832       61.8373761336  MEMB      8               0.0000000000
      1067        14  POPC      HY             16.1304048863       29.9393554247       60.2891472115  MEMB      8               0.0000000000
      1068        14  POPC      O31            17.7454302439       31.1722345064       60.9707128475  MEMB      8               0.0000000000
      1069        14  POPC      C31            17.7587345389       31.8096947802       59.7924532137  MEMB      8               0.0000000000
      1070        14  POPC      O32            16.8982685582       31.7287508552       58.9394841127  MEMB      8               0.0000000000
      1071        14  POPC      C32            18.9954007793       32.7213828849       59.7352308067  MEMB      8               0.0000000000
      1072        14  POPC      H2X            19.5122465357       32.6588712711       60.7181988317  MEMB      8               0.0000000000
      1073        14  POPC      H2Y            18.6354522146       33.7597323139       59.6062943713  MEMB      8               0.0000000000
      1074        14  POPC      C23            19.7612172256       27.7262748786       58.2645057190  MEMB      8               0.0000000000
      1075        14  POPC      H3R            19.2112622964       26.7695946041       58.2875343372  MEMB      8               0.0000000000
      1076        14  POPC      H3S            20.8134328414       27.4656036731       58.0614180327  MEMB      8               0.0000000000
      1077        14  POPC      C24            19.2323940703       28.5187643765       57.0591723206  MEMB      8               0.0000000000
      1078        14  POPC      H4R            19.9742594782       29.2912491112       56.7634562755  MEMB      8               0.0000000000
      1079        14  POPC      H4S            18.2837129157       29.0371354308       57.3219258851  MEMB      8               0.0000000000
      1080        14  POPC      C25            18.9646930505       27.5425056452       55.8985192043  MEMB      8               0.0000000000
      1081        14  POPC      H5R            17.8774467476       27.3207199043       55.8263390773  MEMB      8               0.0000000000
      1082        14  POPC      H5S            19.4699421678       26.5861854153       56.1476613709  MEMB      8               0.0000000000
      1083        14  POPC      C26            19.5394732777       27.9244030256       54.5339597102  MEMB      8               0.0000000000
      1084        14  POPC      H6R            19.3603391283       27.0699269402       53.8388145451  MEMB      8               0.0000000000
      1085        14  POPC      H6S            20.6416825986       28.0507109943       54.6175488506  MEMB      8               0.0000000000
      1086        14  POPC      C27            18.9171904141       29.1797507607       53.9238412876  MEMB      8               0.0000000000
      1087        14  POPC      H7R            19.3187767383       30.0773380625       54.4456985443  MEMB      8               0.0000000000
      1088        14  POPC      H7S            17.8174324486       29.1630460391       54.1039966059  MEMB      8               0.0000000000
      1089        14  POPC      C28            19.1703059740       29.2912341133       52.4082328583  MEMB      8               0.0000000000
      1090        14  POPC      H8R            18.8304664344       30.3039190450       52.1002694660  MEMB      8               0.0000000000
      1091        14  POPC      H8S            18.5222999084       28.5502034862       51.8906218616  MEMB      8               0.0000000000
      1092        14  POPC      C29            20.6208569520       29.1207084100       52.0367660981  MEMB      8               0.0000000000
      1093        14  POPC      H91            21.2927830470       29.8042067273       52.5768601959  MEMB      8               0.0000000000
      1094        14  POPC      C210           21.1530497823       28.2575830299       51.1449340442  MEMB      8               0.0000000000
      1095        14  POPC      H101           22.2422446222       28.2673400279       50.9903595557  MEMB      8               0.0000000000
      1096        14  POPC      C211           20.4303647382       27.2446016778       50.2899117235  MEMB      8               0.0000000000
      1097        14  POPC      H11R           19.4376288888       26.9891803481       50.7215964603  MEMB      8               0.0000000000
      1098        14  POPC      H11S           21.0073433364       26.2947733382       50.2337864027  MEMB      8               0.0000000000
      1099        14  POPC      C212           20.2121496240       27.7910642362       48.8654333853  MEMB      8               0.0000000000
      1100        14  POPC      H12R           19.8336404941       28.8342938321       48.9459323503  MEMB      8               0.0000000000
      1101        14  POPC      H12S           19.4256534642       27.1914955037       48.3539430558  MEMB      8               0.0000000000
      1102        14  POPC      C213           21.4650879664       27.7960825765       47.9750438008  MEMB      8               0.0000000000
      1103        14  POPC      H13R           21.6759885985       26.7617605350       47.6262779035  MEMB      8               0.0000000000
      1104        14  POPC      H13S           22.3470682230       28.1354821699       48.5625673484  MEMB      8               0.0000000000
      1105        14  POPC      C214           21.3068791599       28.7384314960       46.7711577012  MEMB      8               0.0000000000
      1106        14  POPC      H14R           21.2792750137       29.7862978631       47.1517748903  MEMB      8               0.0000000000
      1107        14  POPC      H14S           20.3363021660       28.5422119132       46.2632124396  MEMB      8               0.0000000000
      1108        14  POPC      C215           22.4426934483       28.6055463544       45.7464563935  MEMB      8               0.0000000000
      1109        14  POPC      H15R           22.2684568147       27.7075578730       45.1137794779  MEMB      8               0.0000000000
      1110        14  POPC      H15S           23.3921859267       28.4327933270       46.2947838005  MEMB      8               0.0000000000
      1111        14  POPC      C216           22.6191654388       29.8563221388       44.8686903557  MEMB      8               0.0000000000
      1112        14  POPC      H16R           23.4720466471       29.6923297170       44.1718147387  MEMB      8               0.0000000000
      1113        14  POPC      H16S           22.8887232687       30.7160158286       45.5237450335  MEMB      8               0.0000000000
      1114        14  POPC      C217           21.3758713084       30.2264833238       44.0518804356  MEMB      8               0.0000000000
      1115        14  POPC      H17R           21.5735623352       31.1782737050       43.5085507394  MEMB      8               0.0000000000
      1116        14  POPC      H17S           20.5268549972       30.4142724497       44.7462310131  MEMB      8               0.0000000000
      1117        14  POPC      C218           20.9717802790       29.1574304584       43.0375732911  MEMB      8               0.0000000000
      1118        14  POPC      H18R           20.1413194543       29.5192949343       42.3955674197  MEMB      8               0.0000000000
      1119        14  POPC      H18S           20.6409472062       28.2284558726       43.5495311088  MEMB      8               0.0000000000
      1120        14  POPC      H18T           21.8322363753       28.9071036103       42.3800619102  MEMB      8               0.0000000000
      1121        14  POPC      C33            20.0269811861       32.3622370229       58.6333436381  MEMB      8               0.0000000000
      1122        14  POPC      H3X            20.3865314217       31.3201834410       58.7664878871  MEMB      8               0.0000000000
      1123        14  POPC      H3Y            20.9119430675       33.0295916257       58.7751980118  MEMB      8               0.0000000000
      1124        14  POPC      C34            19.5384567600       32.5535283568       57.1871970856  MEMB      8               0.0000000000
      1125        14  POPC      H4X            18.6892809039       31.8636651768       56.9796506796  MEMB      8               0.0000000000
      1126        14  POPC      H4Y            20.3670107218       32.2825932601       56.4928000086  MEMB      8               0.0000000000
      1127        14  POPC      C35            19.1097192128       33.9965715066       56.8898322827  MEMB      8               0.0000000000
      1128        14  POPC      H5X            19.9201772313       34.6826835403       57.2256945365  MEMB      8               0.0000000000
      1129        14  POPC      H5Y            18.1962016477       34.2317626043       57.4800171952  MEMB      8               0.0000000000
      1130        14  POPC      C36            18.8140679217       34.2811387656       55.4098262881  MEMB      8               0.0000000000
      1131        14  POPC      H6X            19.7151386348       34.0753355509       54.7913069000  MEMB      8               0.0000000000
      1132        14  POPC      H6Y            18.5877627544       35.3693013582       55.3225828002  MEMB      8               0.0000000000
      1133        14  POPC      C37            17.6132840905       33.4977511079       54.8576687114  MEMB      8               0.0000000000
      1134        14  POPC      H7X            16.8076396110       33.4911900006       55.6269289559  MEMB      8               0.0000000000
      1135        14  POPC      H7Y            17.9052848622       32.4401630138       54.6777263201  MEMB      8               0.0000000000
      1136        14  POPC      C38            17.0557685885       34.1264428917       53.5708227975  MEMB      8               0.0000000000
      1137        14  POPC      H8X            17.8548390136       34.1659341180       52.7973098869  MEMB      8               0.0000000000
      1138        14  POPC      H8Y            16.7549012603       35.1744272170       53.8047962485  MEMB      8               0.0000000000
      1139        14  POPC      C39            15.8364558751       33.3893648118       52.9963099339  MEMB      8               0.0000000000
      1140        14  POPC      H9X            15.3691654171       34.0392009480       52.2202024252  MEMB      8               0.0000000000
      1141        14  POPC      H9Y            15.0832148972       33.2297686164       53.7998791785  MEMB      8               0.0000000000
      1142        14  POPC      C310           16.1840141956       32.0452415934       52.3392314026  MEMB      8               0.0000000000
      1143        14  POPC      H10X           16.4847680876       31.3161419531       53.1250873121  MEMB      8               0.0000000000
      1144        14  POPC      H10Y           17.0571791314       32.1965976639       51.6646520414  MEMB      8               0.0000000000
      1145        14  POPC      C311           15.0121311675       31.4800112613       51.5202869650  MEMB      8               0.0000000000
      1146        14  POPC      H11X           14.7621583030       32.1978261868       50.7079464049  MEMB      8               0.0000000000
      1147        14  POPC      H11Y           14.1201271591       31.4018816922       52.1840315227  MEMB      8               0.0000000000
      1148        14  POPC      C312           15.2746510146       30.0946457687       50.9053566097  MEMB      8               0.0000000000
      1149        14  POPC      H12X           14.3871169602       29.7876842821       50.3087097685  MEMB      8               0.0000000000
      1150        14  POPC      H12Y           15.3883300768       29.3635023430       51.7401081612  MEMB      8               0.0000000000
      1151        14  POPC      C313           16.5280334107       29.9890211139       50.0195666468  MEMB      8               0.0000000000
      1152        14  POPC      H13X           16.6464977383       28.9221592230       49.7193129385  MEMB      8               0.0000000000
      1153        14  POPC      H13Y           17.4230855817       30.2606001253       50.6109697329  MEMB      8               0.0000000000
      1154        14  POPC      C314           16.5408860216       30.8519289340       48.7474160695  MEMB      8               0.0000000000
      1155        14  POPC      H14X           16.4226217825       31.9260158014       49.0057432313  MEMB      8               0.0000000000
      1156        14  POPC      H14Y           15.6763920886       30.5617080611       48.1174240121  MEMB      8               0.0000000000
      1157        14  POPC      C315           17.8654209430       30.6533491722       47.9871229214  MEMB      8               0.0000000000
      1158        14  POPC      H15X           18.1328448010       29.5748685507       48.0475276339  MEMB      8               0.0000000000
      1159        14  POPC      H15Y           18.6654549919       31.2171459183       48.5181000323  MEMB      8               0.0000000000
      1160        14  POPC      C316           17.8626378552       31.0262765467       46.5034601593  MEMB      8               0.0000000000
      1161        14  POPC      H16X           18.8682569883       31.3788576536       46.1891194505  MEMB      8               0.0000000000
      1162        14  POPC      H16Y           17.1169279604       31.8153019569       46.2840452013  MEMB      8               0.0000000000
      1163        14  POPC      H16Z           17.6059375605       30.1402054749       45.8849655937  MEMB      8               0.0000000000
      1164        15  POPC      N              29.6521835295       20.5798886025       62.4641227703  MEMB      9               0.0000000000
      1165        15  POPC      C12            28.3871422227       21.1644346642       63.0859291787  MEMB      9               0.0000000000
      1166        15  POPC      H12A           27.7428041135       20.3325553720       63.3496460497  MEMB      9               0.0000000000
      1167        15  POPC      H12B           27.8739970063       21.7754804453       62.3526081201  MEMB      9               0.0000000000
      1168        15  POPC      C13            30.1940281387       19.5706890347       63.4304224252  MEMB      9               0.0000000000
      1169        15  POPC      H13A           29.5424016595       18.7024787442       63.4856479058  MEMB      9               0.0000000000
      1170        15  POPC      H13B           31.2052241276       19.2815216080       63.2115193820  MEMB      9               0.0000000000
      1171        15  POPC      H13C           30.1581050422       19.9938826987       64.4421667569  MEMB      9               0.0000000000
      1172        15  POPC      C14            29.3618198683       19.8934835442       61.1669467612  MEMB      9               0.0000000000
      1173        15  POPC      H14A           30.2865146033       19.5757834740       60.6973406727  MEMB      9               0.0000000000
      1174        15  POPC      H14B           28.7456798970       19.0106360942       61.3254378837  MEMB      9               0.0000000000
      1175        15  POPC      H14C           28.8463081595       20.5440006501       60.4681975964  MEMB      9               0.0000000000
      1176        15  POPC      C15            30.6615798116       21.6642876899       62.2683200958  MEMB      9               0.0000000000
      1177        15  POPC      H15A           30.8874804230       22.0884016239       63.2466553787  MEMB      9               0.0000000000
      1178        15  POPC      H15B           30.2665920405       22.4239949551       61.6100912655  MEMB      9               0.0000000000
      1179        15  POPC      H15C           31.5753637335       21.2744652794       61.8289729573  MEMB      9               0.0000000000
      1180        15  POPC      C11            28.5114956913       22.0187832430       64.3910353503  MEMB      9               0.0000000000
      1181        15  POPC      H11A           27.4938713189       22.3894130810       64.6630707626  MEMB      9               0.0000000000
      1182        15  POPC      H11B           29.1152286791       22.9228028159       64.1751676743  MEMB      9               0.0000000000
      1183        15  POPC      P              28.2331832466       20.3809457242       66.4214046746  MEMB      9               0.0000000000
      1184        15  POPC      O13            26.9836838503       21.0586459265       66.8469634523  MEMB      9               0.0000000000
      1185        15  POPC      O14            29.1066253474       19.8636349175       67.5065472003  MEMB      9               0.0000000000
      1186        15  POPC      O12            29.1085619428       21.3349069560       65.4953985960  MEMB      9               0.0000000000
      1187        15  POPC      O11            27.8945639587       19.1911613919       65.3868218020  MEMB      9               0.0000000000
      1188        15  POPC      C1             26.5824889653       19.0182107829       64.8479664574  MEMB      9               0.0000000000
      1189        15  POPC      HA             26.2934715789       19.8407481263       64.1624493877  MEMB      9               0.0000000000
      1190        15  POPC      HB             25.8595502786       19.0303535010       65.6978581916  MEMB      9               0.0000000000
      1191        15  POPC      C2             26.3590417993       17.6365264624       64.1301397333  MEMB      9               0.0000000000
      1192        15  POPC      HS             26.7884968893       16.8740811411       64.8209409735  MEMB      9               0.0000000000
      1193        15  POPC      O21            26.9645996198       17.5098057540       62.8045859491  MEMB      9               0.0000000000
      1194        15  POPC      C21            26.9902618028       16.2452840184       62.3216833266  MEMB      9               0.0000000000
      1195        15  POPC      O22            26.5200812364       15.2660243085       62.8698984426  MEMB      9               0.0000000000
      1196        15  POPC      C22            27.7790530246       16.1854129210       61.0279256433  MEMB      9               0.0000000000
      1197        15  POPC      H2R            28.5961638990       16.9332179554       61.0623971714  MEMB      9               0.0000000000
      1198        15  POPC      H2S            27.0925879678       16.4311015748       60.1946004479  MEMB      9               0.0000000000
      1199        15  POPC      C3             24.8215540153       17.4119118917       64.0395920053  MEMB      9               0.0000000000
      1200        15  POPC      HX             24.3804836906       17.6487078285       65.0311310387  MEMB      9               0.0000000000
      1201        15  POPC      HY             24.6777000566       16.3288857327       63.8862266063  MEMB      9               0.0000000000
      1202        15  POPC      O31            24.1796440701       18.2371042202       63.0434414224  MEMB      9               0.0000000000
      1203        15  POPC      C31            23.8538400287       17.5887110311       61.9319947571  MEMB      9               0.0000000000
      1204        15  POPC      O32            23.9080385398       16.3857290857       61.7671029463  MEMB      9               0.0000000000
      1205        15  POPC      C32            23.5996698940       18.5607541521       60.7949606175  MEMB      9               0.0000000000
      1206        15  POPC      H2X            22.5761918715       18.3797027403       60.4183990531  MEMB      9               0.0000000000
      1207        15  POPC      H2Y            24.2934830610       18.2575167847       59.9814657568  MEMB      9               0.0000000000
      1208        15  POPC      C23            28.3653981228       14.7664313900       60.8605623568  MEMB      9               0.0000000000
      1209        15  POPC      H3R            27.5789941364       13.9828134426       60.9589799502  MEMB      9               0.0000000000
      1210        15  POPC      H3S            29.1040635846       14.5979939138       61.6817131357  MEMB      9               0.0000000000
      1211        15  POPC      C24            29.0838178652       14.5534588075       59.5258032849  MEMB      9               0.0000000000
      1212        15  POPC      H4R            29.8699715872       13.7847749753       59.7153457091  MEMB      9               0.0000000000
      1213        15  POPC      H4S            29.5927821566       15.4812697446       59.1956080994  MEMB      9               0.0000000000
      1214        15  POPC      C25            28.2001445846       13.9721931703       58.4090717964  MEMB      9               0.0000000000
      1215        15  POPC      H5R            27.5688387776       13.1689596531       58.8446877704  MEMB      9               0.0000000000
      1216        15  POPC      H5S            28.8637654080       13.4854659016       57.6582328810  MEMB      9               0.0000000000
      1217        15  POPC      C26            27.3000974463       14.9769567430       57.6691498327  MEMB      9               0.0000000000
      1218        15  POPC      H6R            26.5039077129       15.3424169855       58.3539961032  MEMB      9               0.0000000000
      1219        15  POPC      H6S            26.7900595955       14.4336204688       56.8421014599  MEMB      9               0.0000000000
      1220        15  POPC      C27            28.0305586051       16.1803921327       57.0529111837  MEMB      9               0.0000000000
      1221        15  POPC      H7R            28.3413207519       16.8686783118       57.8701924957  MEMB      9               0.0000000000
      1222        15  POPC      H7S            27.3138804732       16.7362894564       56.4054561311  MEMB      9               0.0000000000
      1223        15  POPC      C28            29.2770562593       15.8168732718       56.2191194974  MEMB      9               0.0000000000
      1224        15  POPC      H8R            30.0550284547       15.4096920438       56.8987877619  MEMB      9               0.0000000000
      1225        15  POPC      H8S            29.6980869469       16.7648444916       55.8165534127  MEMB      9               0.0000000000
      1226        15  POPC      C29            29.0338254125       14.8367903580       55.0978728173  MEMB      9               0.0000000000
      1227        15  POPC      H91            29.3549579325       13.8014536547       55.2943016463  MEMB      9               0.0000000000
      1228        15  POPC      C210           28.4599970177       15.1268153169       53.9194739404  MEMB      9               0.0000000000
      1229        15  POPC      H101           28.3515261044       14.3296701516       53.1678657088  MEMB      9               0.0000000000
      1230        15  POPC      C211           27.9567199009       16.4885283241       53.5167121740  MEMB      9               0.0000000000
      1231        15  POPC      H11R           28.5256664616       17.3003459843       54.0248266783  MEMB      9               0.0000000000
      1232        15  POPC      H11S           26.8944783176       16.6067984118       53.8276356362  MEMB      9               0.0000000000
      1233        15  POPC      C212           28.0264506641       16.7495805295       52.0057798466  MEMB      9               0.0000000000
      1234        15  POPC      H12R           29.0809911211       16.7415905003       51.6490636660  MEMB      9               0.0000000000
      1235        15  POPC      H12S           27.6273263336       17.7784959862       51.8431300014  MEMB      9               0.0000000000
      1236        15  POPC      C213           27.1864499480       15.7839224583       51.1569475176  MEMB      9               0.0000000000
      1237        15  POPC      H13R           26.2582612781       15.5018212914       51.7014289207  MEMB      9               0.0000000000
      1238        15  POPC      H13S           27.7689683189       14.8515544545       50.9834447247  MEMB      9               0.0000000000
      1239        15  POPC      C214           26.8051626398       16.4143572799       49.8122125199  MEMB      9               0.0000000000
      1240        15  POPC      H14R           27.0047847896       15.6867720895       48.9944326017  MEMB      9               0.0000000000
      1241        15  POPC      H14S           27.4690667813       17.2882978113       49.6404200304  MEMB      9               0.0000000000
      1242        15  POPC      C215           25.3286582655       16.8457287268       49.7460426431  MEMB      9               0.0000000000
      1243        15  POPC      H15R           24.9861624139       17.1607461540       50.7581416069  MEMB      9               0.0000000000
      1244        15  POPC      H15S           24.7266898425       15.9566600265       49.4596344069  MEMB      9               0.0000000000
      1245        15  POPC      C216           25.0302054611       18.0006353029       48.7731086597  MEMB      9               0.0000000000
      1246        15  POPC      H16R           25.2391097162       18.9616633023       49.2903071594  MEMB      9               0.0000000000
      1247        15  POPC      H16S           23.9434280530       18.0005870614       48.5347338134  MEMB      9               0.0000000000
      1248        15  POPC      C217           25.8334697298       17.9806725667       47.4642267175  MEMB      9               0.0000000000
      1249        15  POPC      H17R           26.9156154413       18.0944564839       47.6957746250  MEMB      9               0.0000000000
      1250        15  POPC      H17S           25.5397003971       18.8738461735       46.8663916017  MEMB      9               0.0000000000
      1251        15  POPC      C218           25.6337167738       16.7297502277       46.6105762097  MEMB      9               0.0000000000
      1252        15  POPC      H18R           26.4072954340       16.6682111548       45.8168949642  MEMB      9               0.0000000000
      1253        15  POPC      H18S           24.6367053900       16.7607011437       46.1303441559  MEMB      9               0.0000000000
      1254        15  POPC      H18T           25.6981619455       15.8049086047       47.2195986090  MEMB      9               0.0000000000
      1255        15  POPC      C33            23.8138905617       20.0515240270       61.1392260615  MEMB      9               0.0000000000
      1256        15  POPC      H3X            24.6732101399       20.1983508983       61.8324855113  MEMB      9               0.0000000000
      1257        15  POPC      H3Y            22.9081588034       20.4372218859       61.6589949644  MEMB      9               0.0000000000
      1258        15  POPC      C34            24.0907271882       20.8349669850       59.8564758856  MEMB      9               0.0000000000
      1259        15  POPC      H4X            23.8517656252       21.9068574331       60.0265951243  MEMB      9               0.0000000000
      1260        15  POPC      H4Y            23.4148204716       20.4679117808       59.0494223200  MEMB      9               0.0000000000
      1261        15  POPC      C35            25.5395990165       20.6772483456       59.3750741583  MEMB      9               0.0000000000
      1262        15  POPC      H5X            25.7933531789       19.6018631715       59.2524743564  MEMB      9               0.0000000000
      1263        15  POPC      H5Y            26.2237745581       21.0970231783       60.1450252041  MEMB      9               0.0000000000
      1264        15  POPC      C36            25.7803915857       21.3855264566       58.0382254599  MEMB      9               0.0000000000
      1265        15  POPC      H6X            25.3823250906       22.4231416255       58.0967086563  MEMB      9               0.0000000000
      1266        15  POPC      H6Y            25.2124225974       20.8745700190       57.2290395207  MEMB      9               0.0000000000
      1267        15  POPC      C37            27.2597665205       21.4679309758       57.6378094567  MEMB      9               0.0000000000
      1268        15  POPC      H7X            27.8609047876       21.9044975901       58.4644347380  MEMB      9               0.0000000000
      1269        15  POPC      H7Y            27.3124657919       22.1816532525       56.7825842306  MEMB      9               0.0000000000
      1270        15  POPC      C38            27.8486369722       20.1141789595       57.2121872801  MEMB      9               0.0000000000
      1271        15  POPC      H8X            27.1845194805       19.6641680918       56.4397552925  MEMB      9               0.0000000000
      1272        15  POPC      H8Y            27.8532054169       19.4232885234       58.0823623104  MEMB      9               0.0000000000
      1273        15  POPC      C39            29.2769291047       20.2064804544       56.6540749024  MEMB      9               0.0000000000
      1274        15  POPC      H9X            29.6005086545       19.1959345611       56.3164164173  MEMB      9               0.0000000000
      1275        15  POPC      H9Y            29.9619501741       20.5223897017       57.4731864465  MEMB      9               0.0000000000
      1276        15  POPC      C310           29.4418986449       21.1969706451       55.4906688933  MEMB      9               0.0000000000
      1277        15  POPC      H10X           30.5087662235       21.1916354701       55.1787890544  MEMB      9               0.0000000000
      1278        15  POPC      H10Y           29.2171615800       22.2267561422       55.8470761679  MEMB      9               0.0000000000
      1279        15  POPC      C311           28.5683220442       20.8880853779       54.2630524982  MEMB      9               0.0000000000
      1280        15  POPC      H11X           27.5061130721       20.7774004234       54.5746890433  MEMB      9               0.0000000000
      1281        15  POPC      H11Y           28.8978099911       19.9200877226       53.8286072009  MEMB      9               0.0000000000
      1282        15  POPC      C312           28.6303978934       22.0046935920       53.2089981858  MEMB      9               0.0000000000
      1283        15  POPC      H12X           29.6888898054       22.2400537679       52.9736840046  MEMB      9               0.0000000000
      1284        15  POPC      H12Y           28.1757618327       22.9206865176       53.6514058744  MEMB      9               0.0000000000
      1285        15  POPC      C313           27.9098165942       21.6677437202       51.8947273433  MEMB      9               0.0000000000
      1286        15  POPC      H13X           27.8098379140       22.6015041355       51.2973416288  MEMB      9               0.0000000000
      1287        15  POPC      H13Y           26.8837345227       21.3006344777       52.1186919290  MEMB      9               0.0000000000
      1288        15  POPC      C314           28.6604833146       20.6259011546       51.0495696089  MEMB      9               0.0000000000
      1289        15  POPC      H14X           28.7706742721       19.6962655344       51.6492309384  MEMB      9               0.0000000000
      1290        15  POPC      H14Y           29.6833010775       20.9953392696       50.8176822408  MEMB      9               0.0000000000
      1291        15  POPC      C315           27.9369567154       20.2782920201       49.7425147323  MEMB      9               0.0000000000
      1292        15  POPC      H15X           26.8737668568       20.0629501676       49.9893751127  MEMB      9               0.0000000000
      1293        15  POPC      H15Y           28.3797322663       19.3459426402       49.3239271307  MEMB      9               0.0000000000
      1294        15  POPC      C316           27.9976724915       21.3720523628       48.6727898095  MEMB      9               0.0000000000
      1295        15  POPC      H16X           29.0487271935       21.5781048228       48.3794157561  MEMB      9               0.0000000000
      1296        15  POPC      H16Y           27.5477092224       22.3130861624       49.0528202200  MEMB      9               0.0000000000
      1297        15  POPC      H16Z           27.4299135242       21.0587463076       47.7700346394  MEMB      9               0.0000000000
      1298        16  POPC      N              41.6699063641       22.0689480676       63.2876021548  MEMB      10              0.0000000000
      1299        16  POPC      C12            42.8070131851       21.4256066646       64.0903583655  MEMB      10              0.0000000000
      1300        16  POPC      H12A           43.7438053022       21.6090292703       63.5828800037  MEMB      10              0.0000000000
      1301        16  POPC      H12B           42.6994914413       20.3419624547       64.1322971632  MEMB      10              0.0000000000
      1302        16  POPC      C13            41.7748255272       23.5564961874       63.3583712725  MEMB      10              0.0000000000
      1303        16  POPC      H13A           42.7592246844       23.9008021465       63.0715259943  MEMB      10              0.0000000000
      1304        16  POPC      H13B           41.0121892665       24.0805330923       62.8047914012  MEMB      10              0.0000000000
      1305        16  POPC      H13C           41.6670561388       23.8554414942       64.4111904052  MEMB      10              0.0000000000
      1306        16  POPC      C14            41.7037094659       21.6463876296       61.8652895793  MEMB      10              0.0000000000
      1307        16  POPC      H14A           41.4313709590       20.5967831224       61.7796908861  MEMB      10              0.0000000000
      1308        16  POPC      H14B           41.0053036243       22.2255207165       61.2723883128  MEMB      10              0.0000000000
      1309        16  POPC      H14C           42.6875036647       21.7606608051       61.4293908300  MEMB      10              0.0000000000
      1310        16  POPC      C15            40.3701491569       21.6734242189       63.9283544098  MEMB      10              0.0000000000
      1311        16  POPC      H15A           40.3760290845       22.0137168623       64.9634974896  MEMB      10              0.0000000000
      1312        16  POPC      H15B           40.2395529775       20.6024398770       63.9300536883  MEMB      10              0.0000000000
      1313        16  POPC      H15C           39.5181042591       22.1134370748       63.4333527499  MEMB      10              0.0000000000
      1314        16  POPC      C11            43.0098943271       21.9325346858       65.5390961331  MEMB      10              0.0000000000
      1315        16  POPC      H11A           43.7519268757       21.2672673040       66.0458136287  MEMB      10              0.0000000000
      1316        16  POPC      H11B           42.0512476988       21.8645028209       66.1033459594  MEMB      10              0.0000000000
      1317        16  POPC      P              43.8613142980       24.0253263074       66.8549799017  MEMB      10              0.0000000000
      1318        16  POPC      O13            43.4575320911       23.2056089243       68.0307597469  MEMB      10              0.0000000000
      1319        16  POPC      O14            43.3638908438       25.4246421413       66.7751891977  MEMB      10              0.0000000000
      1320        16  POPC      O12            43.4909558945       23.2736247807       65.5084128677  MEMB      10              0.0000000000
      1321        16  POPC      O11            45.4509297129       24.0378857175       66.8739813287  MEMB      10              0.0000000000
      1322        16  POPC      C1             46.2544001052       23.3653589063       65.9100020962  MEMB      10              0.0000000000
      1323        16  POPC      HA             45.7560443518       22.4689821201       65.4697610657  MEMB      10              0.0000000000
      1324        16  POPC      HB             47.1715955774       23.0128661577       66.4258041044  MEMB      10              0.0000000000
      1325        16  POPC      C2             46.6586670658       24.3539377249       64.7985690341  MEMB      10              0.0000000000
      1326        16  POPC      HS             47.1128395191       25.2226768815       65.3271065219  MEMB      10              0.0000000000
      1327        16  POPC      O21            45.4860002351       24.6911203774       64.0450117170  MEMB      10              0.0000000000
      1328        16  POPC      C21            45.1260487845       25.9580165321       64.0723828821  MEMB      10              0.0000000000
      1329        16  POPC      O22            45.6761743663       26.8493696994       64.6965403133  MEMB      10              0.0000000000
      1330        16  POPC      C22            44.0959441187       26.2031138480       63.0082191737  MEMB      10              0.0000000000
      1331        16  POPC      H2R            43.1486334289       26.5399272833       63.4722233166  MEMB      10              0.0000000000
      1332        16  POPC      H2S            43.9147461413       25.2717885309       62.4369272305  MEMB      10              0.0000000000
      1333        16  POPC      C3             47.7315433201       23.8081731341       63.8176125219  MEMB      10              0.0000000000
      1334        16  POPC      HX             48.5930295340       23.4169692557       64.3932463096  MEMB      10              0.0000000000
      1335        16  POPC      HY             48.1167150589       24.6846661551       63.2394269897  MEMB      10              0.0000000000
      1336        16  POPC      O31            47.1825283165       22.7472268999       63.0017862300  MEMB      10              0.0000000000
      1337        16  POPC      C31            46.8804481979       23.1175777354       61.7498804646  MEMB      10              0.0000000000
      1338        16  POPC      O32            47.3021379897       24.1118945017       61.1927547944  MEMB      10              0.0000000000
      1339        16  POPC      C32            45.9299173484       22.0879383361       61.1393050713  MEMB      10              0.0000000000
      1340        16  POPC      H2X            44.9866909688       22.1031565595       61.7191808475  MEMB      10              0.0000000000
      1341        16  POPC      H2Y            46.4081528544       21.0972763880       61.2581342933  MEMB      10              0.0000000000
      1342        16  POPC      C23            44.7190585696       27.2770881296       62.1189147814  MEMB      10              0.0000000000
      1343        16  POPC      H3R            45.7658079089       27.0003288310       61.8374407137  MEMB      10              0.0000000000
      1344        16  POPC      H3S            44.7531857102       28.2455804604       62.6731668708  MEMB      10              0.0000000000
      1345        16  POPC      C24            43.9497379233       27.4629490186       60.8323379034  MEMB      10              0.0000000000
      1346        16  POPC      H4R            44.3832644852       28.3508451384       60.3217913011  MEMB      10              0.0000000000
      1347        16  POPC      H4S            42.8892719556       27.6872704967       61.0843138765  MEMB      10              0.0000000000
      1348        16  POPC      C25            44.0381249197       26.2869254804       59.8561759870  MEMB      10              0.0000000000
      1349        16  POPC      H5R            44.5109776538       25.4000923570       60.3285517008  MEMB      10              0.0000000000
      1350        16  POPC      H5S            44.7262675451       26.5912012660       59.0366091061  MEMB      10              0.0000000000
      1351        16  POPC      C26            42.6530698323       25.9137933915       59.3186229844  MEMB      10              0.0000000000
      1352        16  POPC      H6R            41.9964057786       26.8140006640       59.3213823066  MEMB      10              0.0000000000
      1353        16  POPC      H6S            42.2017708033       25.1659657455       60.0029400562  MEMB      10              0.0000000000
      1354        16  POPC      C27            42.6477035325       25.3854770041       57.8839419041  MEMB      10              0.0000000000
      1355        16  POPC      H7R            41.6075161984       25.1020391353       57.6236274581  MEMB      10              0.0000000000
      1356        16  POPC      H7S            43.2625674130       24.4626353041       57.8392816851  MEMB      10              0.0000000000
      1357        16  POPC      C28            43.1384888026       26.4251922328       56.8616237037  MEMB      10              0.0000000000
      1358        16  POPC      H8R            44.2210398236       26.6214304749       57.0212439280  MEMB      10              0.0000000000
      1359        16  POPC      H8S            42.6061829851       27.3883247138       57.0248992829  MEMB      10              0.0000000000
      1360        16  POPC      C29            42.8992121218       25.9160203667       55.4709123093  MEMB      10              0.0000000000
      1361        16  POPC      H91            42.0283201559       26.3419781840       54.9478972875  MEMB      10              0.0000000000
      1362        16  POPC      C210           43.6584064580       24.9876717783       54.8714983091  MEMB      10              0.0000000000
      1363        16  POPC      H101           43.3731962770       24.6360041958       53.8711728473  MEMB      10              0.0000000000
      1364        16  POPC      C211           44.8657079844       24.2986060035       55.4634976735  MEMB      10              0.0000000000
      1365        16  POPC      H11R           44.7956335620       23.2082057394       55.2675509555  MEMB      10              0.0000000000
      1366        16  POPC      H11S           44.9234091602       24.4097840648       56.5693583204  MEMB      10              0.0000000000
      1367        16  POPC      C212           46.2089076963       24.8117781903       54.9093944796  MEMB      10              0.0000000000
      1368        16  POPC      H12R           47.0173680878       24.1319533957       55.2623777218  MEMB      10              0.0000000000
      1369        16  POPC      H12S           46.4121239561       25.8177100256       55.3419217288  MEMB      10              0.0000000000
      1370        16  POPC      C213           46.2630594038       24.9265167096       53.3823559244  MEMB      10              0.0000000000
      1371        16  POPC      H13R           47.2818154899       25.2511662698       53.0708979101  MEMB      10              0.0000000000
      1372        16  POPC      H13S           45.5648909089       25.7372582551       53.0719363861  MEMB      10              0.0000000000
      1373        16  POPC      C214           45.8993407276       23.6326397306       52.6406507598  MEMB      10              0.0000000000
      1374        16  POPC      H14R           45.0551570499       23.0950316594       53.1204981227  MEMB      10              0.0000000000
      1375        16  POPC      H14S           46.7798643832       22.9542930773       52.6648462875  MEMB      10              0.0000000000
      1376        16  POPC      C215           45.5029361165       23.9209933023       51.1935838723  MEMB      10              0.0000000000
      1377        16  POPC      H15R           45.6106048986       23.0079004210       50.5832005529  MEMB      10              0.0000000000
      1378        16  POPC      H15S           46.2209267397       24.6548689624       50.7859877986  MEMB      10              0.0000000000
      1379        16  POPC      C216           44.0627353607       24.4270439267       51.0381110495  MEMB      10              0.0000000000
      1380        16  POPC      H16R           43.7616352801       25.0239062669       51.9232164099  MEMB      10              0.0000000000
      1381        16  POPC      H16S           43.3828073890       23.5480968723       50.9689825034  MEMB      10              0.0000000000
      1382        16  POPC      C217           43.9013060278       25.3285545369       49.8156629450  MEMB      10              0.0000000000
      1383        16  POPC      H17R           44.5778145811       24.9671894639       49.0118636412  MEMB      10              0.0000000000
      1384        16  POPC      H17S           44.2365265715       26.3562509771       50.0869972032  MEMB      10              0.0000000000
      1385        16  POPC      C218           42.4780525420       25.3918270455       49.2830920185  MEMB      10              0.0000000000
      1386        16  POPC      H18R           41.7757308409       25.7404880272       50.0696706190  MEMB      10              0.0000000000
      1387        16  POPC      H18S           42.1430815332       24.3974524431       48.9176010494  MEMB      10              0.0000000000
      1388        16  POPC      H18T           42.4412618369       26.1086209500       48.4373649239  MEMB      10              0.0000000000
      1389        16  POPC      C33            45.6388731892       22.3413113920       59.6425517807  MEMB      10              0.0000000000
      1390        16  POPC      H3X            46.5858771227       22.6045468321       59.1144855739  MEMB      10              0.0000000000
      1391        16  POPC      H3Y            44.9677052338       23.2192293754       59.5165953104  MEMB      10              0.0000000000
      1392        16  POPC      C34            45.0344072413       21.1144492758       58.9405532526  MEMB      10              0.0000000000
      1393        16  POPC      H4X            44.0548139879       20.8525387048       59.3915306614  MEMB      10              0.0000000000
      1394        16  POPC      H4Y            45.7161676729       20.2498544463       59.1014568210  MEMB      10              0.0000000000
      1395        16  POPC      C35            44.8634784785       21.3473635967       57.4296197995  MEMB      10              0.0000000000
      1396        16  POPC      H5X            45.7742068352       21.8610179946       57.0431880692  MEMB      10              0.0000000000
      1397        16  POPC      H5Y            44.0053198195       22.0333465386       57.2565520061  MEMB      10              0.0000000000
      1398        16  POPC      C36            44.6739392221       20.0654017589       56.6018260529  MEMB      10              0.0000000000
      1399        16  POPC      H6X            43.7825583800       19.5074011052       56.9663240425  MEMB      10              0.0000000000
      1400        16  POPC      H6Y            45.5600614859       19.4057309133       56.7369038130  MEMB      10              0.0000000000
      1401        16  POPC      C37            44.5119170867       20.3651125954       55.1022508635  MEMB      10              0.0000000000
      1402        16  POPC      H7X            45.3567293996       20.9990925217       54.7498040034  MEMB      10              0.0000000000
      1403        16  POPC      H7Y            43.5700682148       20.9431516586       54.9642613256  MEMB      10              0.0000000000
      1404        16  POPC      C38            44.4559161910       19.0977540317       54.2387938600  MEMB      10              0.0000000000
      1405        16  POPC      H8X            43.7335154823       18.3971098747       54.7187806673  MEMB      10              0.0000000000
      1406        16  POPC      H8Y            45.4484070872       18.6007094278       54.2212735088  MEMB      10              0.0000000000
      1407        16  POPC      C39            43.9801617768       19.3565134024       52.8024738699  MEMB      10              0.0000000000
      1408        16  POPC      H9X            43.1778530421       20.1254109891       52.8374489094  MEMB      10              0.0000000000
      1409        16  POPC      H9Y            43.5365868533       18.4165583662       52.4001589213  MEMB      10              0.0000000000
      1410        16  POPC      C310           45.0668362974       19.8139190878       51.8161325849  MEMB      10              0.0000000000
      1411        16  POPC      H10X           45.8337207067       19.0189886899       51.7011644728  MEMB      10              0.0000000000
      1412        16  POPC      H10Y           45.5692499552       20.7223778799       52.2152115459  MEMB      10              0.0000000000
      1413        16  POPC      C311           44.4573970957       20.1278741271       50.4419392529  MEMB      10              0.0000000000
      1414        16  POPC      H11X           43.6700758552       20.9013310298       50.6026145048  MEMB      10              0.0000000000
      1415        16  POPC      H11Y           43.9626036159       19.2155325157       50.0411368953  MEMB      10              0.0000000000
      1416        16  POPC      C312           45.4428923537       20.6516182644       49.3837213343  MEMB      10              0.0000000000
      1417        16  POPC      H12X           45.9276627306       19.7999258080       48.8592086684  MEMB      10              0.0000000000
      1418        16  POPC      H12Y           46.2496218784       21.2199876449       49.8902108326  MEMB      10              0.0000000000
      1419        16  POPC      C313           44.7432300802       21.5736871396       48.3698479669  MEMB      10              0.0000000000
      1420        16  POPC      H13X           44.1351944534       22.3261873742       48.9205849501  MEMB      10              0.0000000000
      1421        16  POPC      H13Y           44.0399071597       20.9588135442       47.7717563555  MEMB      10              0.0000000000
      1422        16  POPC      C314           45.7026856972       22.3279434055       47.4363142061  MEMB      10              0.0000000000
      1423        16  POPC      H14X           46.2495899671       21.5873025440       46.8115917454  MEMB      10              0.0000000000
      1424        16  POPC      H14Y           46.4535726214       22.8777190445       48.0486543938  MEMB      10              0.0000000000
      1425        16  POPC      C315           44.9967744953       23.3351861888       46.5094305356  MEMB      10              0.0000000000
      1426        16  POPC      H15X           45.7532678508       23.7713943508       45.8194708496  MEMB      10              0.0000000000
      1427        16  POPC      H15Y           44.5890380918       24.1708615040       47.1173430967  MEMB      10              0.0000000000
      1428        16  POPC      C316           43.8539348460       22.7490768877       45.6804621753  MEMB      10              0.0000000000
      1429        16  POPC      H16X           43.4579391979       23.5013815055       44.9649036212  MEMB      10              0.0000000000
      1430        16  POPC      H16Y           43.0169760865       22.4309155672       46.3388175137  MEMB      10              0.0000000000
      1431        16  POPC      H16Z           44.1986217515       21.8631701559       45.1062063297  MEMB      10              0.0000000000
      1432        17  POPC      N              48.3618883579       27.8102344609       66.6681161350  MEMB      11              0.0000000000
      1433        17  POPC      C12            48.3265219872       27.5699281814       65.1744830795  MEMB      11              0.0000000000
      1434        17  POPC      H12A           47.3313157468       27.8551148447       64.8237132538  MEMB      11              0.0000000000
      1435        17  POPC      H12B           48.4343436397       26.5240641542       64.9660891601  MEMB      11              0.0000000000
      1436        17  POPC      C13            48.0792055329       29.2651744120       66.9069485746  MEMB      11              0.0000000000
      1437        17  POPC      H13A           48.3075622030       29.5425807547       67.9268466674  MEMB      11              0.0000000000
      1438        17  POPC      H13B           48.6972149813       29.8677082724       66.2322148310  MEMB      11              0.0000000000
      1439        17  POPC      H13C           47.0432391309       29.4927243555       66.6933537127  MEMB      11              0.0000000000
      1440        17  POPC      C14            47.3178898550       27.0224074738       67.3831424317  MEMB      11              0.0000000000
      1441        17  POPC      H14A           46.3162662770       27.2400583581       66.9993235350  MEMB      11              0.0000000000
      1442        17  POPC      H14B           47.4781284111       25.9594284106       67.3037852323  MEMB      11              0.0000000000
      1443        17  POPC      H14C           47.2931472098       27.2954026036       68.4315181106  MEMB      11              0.0000000000
      1444        17  POPC      C15            49.6896231058       27.4927162462       67.2654458135  MEMB      11              0.0000000000
      1445        17  POPC      H15A           49.9512102578       26.4408031801       67.2467041253  MEMB      11              0.0000000000
      1446        17  POPC      H15B           49.6756282682       27.7877408766       68.3110831671  MEMB      11              0.0000000000
      1447        17  POPC      H15C           50.4791063944       28.0771477932       66.7967524916  MEMB      11              0.0000000000
      1448        17  POPC      C11            49.2902399508       28.3711449486       64.2881029939  MEMB      11              0.0000000000
      1449        17  POPC      H11A           49.2777497349       27.9003919544       63.2720594137  MEMB      11              0.0000000000
      1450        17  POPC      H11B           50.3319598551       28.3352103788       64.6830867237  MEMB      11              0.0000000000
      1451        17  POPC      P              49.2750757327       30.6659329956       63.0613651417  MEMB      11              0.0000000000
      1452        17  POPC      O13            50.1432738201       29.9186958325       62.1230839986  MEMB      11              0.0000000000
      1453        17  POPC      O14            49.7948336770       31.9149783055       63.6524631386  MEMB      11              0.0000000000
      1454        17  POPC      O12            48.8114160202       29.7078875782       64.2376308123  MEMB      11              0.0000000000
      1455        17  POPC      O11            47.9165362709       31.0375708702       62.3748810736  MEMB      11              0.0000000000
      1456        17  POPC      C1             46.9773973158       30.0991791882       61.8861629539  MEMB      11              0.0000000000
      1457        17  POPC      HA             45.9647221643       30.4247660410       62.2125048764  MEMB      11              0.0000000000
      1458        17  POPC      HB             47.1497148133       29.0681469418       62.2734626699  MEMB      11              0.0000000000
      1459        17  POPC      C2             47.0194251447       30.0915662470       60.3455693136  MEMB      11              0.0000000000
      1460        17  POPC      HS             46.1704344131       29.4697708613       59.9786697056  MEMB      11              0.0000000000
      1461        17  POPC      O21            48.2973440943       29.6185299269       59.9061677746  MEMB      11              0.0000000000
      1462        17  POPC      C21            48.3533137140       28.3482244070       59.6154494298  MEMB      11              0.0000000000
      1463        17  POPC      O22            47.3883893387       27.6031054002       59.5320821305  MEMB      11              0.0000000000
      1464        17  POPC      C22            49.8026643443       27.9129849025       59.4128903731  MEMB      11              0.0000000000
      1465        17  POPC      H2R            50.0745206035       27.3171215874       60.3070957184  MEMB      11              0.0000000000
      1466        17  POPC      H2S            50.4531194784       28.8103062040       59.3936417226  MEMB      11              0.0000000000
      1467        17  POPC      C3             46.8291810619       31.5024420157       59.7574160192  MEMB      11              0.0000000000
      1468        17  POPC      HX             47.7810684976       32.0776121501       59.8500667543  MEMB      11              0.0000000000
      1469        17  POPC      HY             46.0646412002       32.0343733342       60.3637382435  MEMB      11              0.0000000000
      1470        17  POPC      O31            46.3545517060       31.3878244078       58.4024964309  MEMB      11              0.0000000000
      1471        17  POPC      C31            47.2910845378       31.1794727439       57.4808583865  MEMB      11              0.0000000000
      1472        17  POPC      O32            48.4917845453       31.2696938405       57.6402020547  MEMB      11              0.0000000000
      1473        17  POPC      C32            46.5939664196       30.7795985041       56.1847831991  MEMB      11              0.0000000000
      1474        17  POPC      H2X            45.8274525619       31.5494608310       55.9606600166  MEMB      11              0.0000000000
      1475        17  POPC      H2Y            46.0792108692       29.8093896355       56.3487580713  MEMB      11              0.0000000000
      1476        17  POPC      C23            49.9936538812       27.0575379479       58.1403768000  MEMB      11              0.0000000000
      1477        17  POPC      H3R            49.2468769233       26.2339494479       58.0988458856  MEMB      11              0.0000000000
      1478        17  POPC      H3S            51.0028531006       26.5891509362       58.1965423020  MEMB      11              0.0000000000
      1479        17  POPC      C24            49.9236732649       27.8919616835       56.8553603229  MEMB      11              0.0000000000
      1480        17  POPC      H4R            50.5124299703       28.8261709473       57.0088604909  MEMB      11              0.0000000000
      1481        17  POPC      H4S            48.8697424559       28.1909107358       56.6648384075  MEMB      11              0.0000000000
      1482        17  POPC      C25            50.4948216112       27.1434141414       55.6433492863  MEMB      11              0.0000000000
      1483        17  POPC      H5R            49.8864766525       26.2324844835       55.4518415062  MEMB      11              0.0000000000
      1484        17  POPC      H5S            51.5315783250       26.8191435291       55.8917972096  MEMB      11              0.0000000000
      1485        17  POPC      C26            50.5494351873       28.0052127279       54.3752975625  MEMB      11              0.0000000000
      1486        17  POPC      H6R            51.0265196230       28.9805076847       54.6256127587  MEMB      11              0.0000000000
      1487        17  POPC      H6S            49.5152919730       28.2141781669       54.0239863179  MEMB      11              0.0000000000
      1488        17  POPC      C27            51.3513094080       27.3621735969       53.2278760104  MEMB      11              0.0000000000
      1489        17  POPC      H7R            52.4032572739       27.2027273487       53.5541080863  MEMB      11              0.0000000000
      1490        17  POPC      H7S            51.3711970400       28.0922512613       52.3855088925  MEMB      11              0.0000000000
      1491        17  POPC      C28            50.7541573266       26.0284991213       52.7336682772  MEMB      11              0.0000000000
      1492        17  POPC      H8R            49.6557979543       26.1778224632       52.6203764840  MEMB      11              0.0000000000
      1493        17  POPC      H8S            50.8881388215       25.2515984839       53.5182327031  MEMB      11              0.0000000000
      1494        17  POPC      C29            51.3679994569       25.5631011030       51.4341859634  MEMB      11              0.0000000000
      1495        17  POPC      H91            52.2445953269       24.9045826269       51.5276336901  MEMB      11              0.0000000000
      1496        17  POPC      C210           50.9394822785       25.9125342816       50.2079647784  MEMB      11              0.0000000000
      1497        17  POPC      H101           51.4559067414       25.5199901754       49.3180220868  MEMB      11              0.0000000000
      1498        17  POPC      C211           49.7741312479       26.8304861076       49.9409607617  MEMB      11              0.0000000000
      1499        17  POPC      H11R           49.9300130053       27.4095687412       49.0027799344  MEMB      11              0.0000000000
      1500        17  POPC      H11S           49.6757653986       27.5777884521       50.7590999003  MEMB      11              0.0000000000
      1501        17  POPC      C212           48.4512746103       26.0570401999       49.8551444025  MEMB      11              0.0000000000
      1502        17  POPC      H12R           48.4132893527       25.2737212265       50.6498612381  MEMB      11              0.0000000000
      1503        17  POPC      H12S           48.3956190549       25.5194884357       48.8863036322  MEMB      11              0.0000000000
      1504        17  POPC      C213           47.2006045055       26.9350634004       50.0379834155  MEMB      11              0.0000000000
      1505        17  POPC      H13R           47.0160871782       27.0632322893       51.1299433832  MEMB      11              0.0000000000
      1506        17  POPC      H13S           46.3411000684       26.3796289089       49.6075794630  MEMB      11              0.0000000000
      1507        17  POPC      C214           47.2117727831       28.3273766126       49.3977354511  MEMB      11              0.0000000000
      1508        17  POPC      H14R           47.4134423224       28.2439100012       48.3092844962  MEMB      11              0.0000000000
      1509        17  POPC      H14S           48.0237527123       28.9411200257       49.8422347442  MEMB      11              0.0000000000
      1510        17  POPC      C215           45.8640631911       29.0273337503       49.6420315413  MEMB      11              0.0000000000
      1511        17  POPC      H15R           45.6738708149       29.0502927138       50.7393801268  MEMB      11              0.0000000000
      1512        17  POPC      H15S           45.0482229632       28.4149818840       49.1995340730  MEMB      11              0.0000000000
      1513        17  POPC      C216           45.7874316208       30.4632094072       49.1021185235  MEMB      11              0.0000000000
      1514        17  POPC      H16R           46.5686610670       31.0929977492       49.5841176901  MEMB      11              0.0000000000
      1515        17  POPC      H16S           44.7984643712       30.8877461042       49.3873506263  MEMB      11              0.0000000000
      1516        17  POPC      C217           45.9482167527       30.5682226749       47.5802591309  MEMB      11              0.0000000000
      1517        17  POPC      H17R           47.0268240526       30.4351912923       47.3363691922  MEMB      11              0.0000000000
      1518        17  POPC      H17S           45.6606404700       31.5996627275       47.2710135973  MEMB      11              0.0000000000
      1519        17  POPC      C218           45.1261831618       29.5518214444       46.7836390563  MEMB      11              0.0000000000
      1520        17  POPC      H18R           45.5550015140       28.5322935387       46.8777726282  MEMB      11              0.0000000000
      1521        17  POPC      H18S           45.1028958074       29.8220330917       45.7064373379  MEMB      11              0.0000000000
      1522        17  POPC      H18T           44.0829690873       29.5187142563       47.1629735664  MEMB      11              0.0000000000
      1523        17  POPC      C33            47.5855892002       30.6719596444       55.0094753196  MEMB      11              0.0000000000
      1524        17  POPC      H3X            48.2040626659       29.7551039883       55.1258671108  MEMB      11              0.0000000000
      1525        17  POPC      H3Y            48.2814116327       31.5441115273       55.0134882021  MEMB      11              0.0000000000
      1526        17  POPC      C34            46.8613363248       30.6487166534       53.6628789639  MEMB      11              0.0000000000
      1527        17  POPC      H4X            46.3686812186       31.6324509824       53.4962463458  MEMB      11              0.0000000000
      1528        17  POPC      H4Y            46.0586251598       29.8764006276       53.6978093634  MEMB      11              0.0000000000
      1529        17  POPC      C35            47.7798675462       30.3432834880       52.4752536885  MEMB      11              0.0000000000
      1530        17  POPC      H5X            47.1795654518       30.4596874504       51.5487238497  MEMB      11              0.0000000000
      1531        17  POPC      H5Y            48.1086617428       29.2801987225       52.5290207725  MEMB      11              0.0000000000
      1532        17  POPC      C36            49.0304941459       31.2273941493       52.3333630192  MEMB      11              0.0000000000
      1533        17  POPC      H6X            49.6955743739       31.0851886829       53.2128639377  MEMB      11              0.0000000000
      1534        17  POPC      H6Y            48.7395214770       32.2994528862       52.2846695949  MEMB      11              0.0000000000
      1535        17  POPC      C37            49.7898276966       30.8350942399       51.0575649194  MEMB      11              0.0000000000
      1536        17  POPC      H7X            49.1258913394       31.0321565176       50.1863404392  MEMB      11              0.0000000000
      1537        17  POPC      H7Y            49.9768468339       29.7380208220       51.0976192519  MEMB      11              0.0000000000
      1538        17  POPC      C38            51.1410994749       31.5303263999       50.8413497814  MEMB      11              0.0000000000
      1539        17  POPC      H8X            51.7219823890       31.4901372062       51.7907858543  MEMB      11              0.0000000000
      1540        17  POPC      H8Y            50.9762000568       32.5998568585       50.5845344741  MEMB      11              0.0000000000
      1541        17  POPC      C39            51.9711763698       30.8469737376       49.7373751262  MEMB      11              0.0000000000
      1542        17  POPC      H9X            52.1511359644       29.7899003629       50.0415686053  MEMB      11              0.0000000000
      1543        17  POPC      H9Y            52.9625777384       31.3433110655       49.6544906358  MEMB      11              0.0000000000
      1544        17  POPC      C310           51.2906291295       30.8501859501       48.3583658435  MEMB      11              0.0000000000
      1545        17  POPC      H10X           51.2356891534       31.8932927412       47.9759228869  MEMB      11              0.0000000000
      1546        17  POPC      H10Y           50.2503347301       30.4759274551       48.4751743762  MEMB      11              0.0000000000
      1547        17  POPC      C311           51.9955979426       29.9529793092       47.3286524907  MEMB      11              0.0000000000
      1548        17  POPC      H11X           51.9554997101       28.9018605001       47.6961109102  MEMB      11              0.0000000000
      1549        17  POPC      H11Y           53.0669273186       30.2462651506       47.2552112474  MEMB      11              0.0000000000
      1550        17  POPC      C312           51.3624881542       30.0119999488       45.9273433919  MEMB      11              0.0000000000
      1551        17  POPC      H12X           51.8508444625       29.2555812298       45.2732070154  MEMB      11              0.0000000000
      1552        17  POPC      H12Y           51.5539709905       31.0158289301       45.4859296215  MEMB      11              0.0000000000
      1553        17  POPC      C313           49.8488946606       29.7593707869       45.9247496753  MEMB      11              0.0000000000
      1554        17  POPC      H13X           49.3451696707       30.5537758660       46.5214142545  MEMB      11              0.0000000000
      1555        17  POPC      H13Y           49.6274108512       28.7812488157       46.4075888211  MEMB      11              0.0000000000
      1556        17  POPC      C314           49.2370505147       29.7871869672       44.5201713237  MEMB      11              0.0000000000
      1557        17  POPC      H14X           49.5959926281       28.9210971147       43.9289615727  MEMB      11              0.0000000000
      1558        17  POPC      H14Y           49.5852862220       30.7027333521       44.0000081302  MEMB      11              0.0000000000
      1559        17  POPC      C315           47.7074082973       29.7627780625       44.5853616303  MEMB      11              0.0000000000
      1560        17  POPC      H15X           47.3690923469       30.6180461101       45.2073691451  MEMB      11              0.0000000000
      1561        17  POPC      H15Y           47.4033614637       28.8258324284       45.1075180509  MEMB      11              0.0000000000
      1562        17  POPC      C316           46.9981544567       29.8287274080       43.2365397322  MEMB      11              0.0000000000
      1563        17  POPC      H16X           45.9454371043       29.4954436816       43.3390011589  MEMB      11              0.0000000000
      1564        17  POPC      H16Y           47.5252667055       29.1783601855       42.5088483626  MEMB      11              0.0000000000
      1565        17  POPC      H16Z           46.9647395247       30.8555500011       42.8257526658  MEMB      11              0.0000000000
      1566        18  POPC      N              45.5578261933       44.8090058646       65.5403850792  MEMB      12              0.0000000000
      1567        18  POPC      C12            45.7153235197       46.1816613995       64.8836304296  MEMB      12              0.0000000000
      1568        18  POPC      H12A           45.7778450412       46.0376158610       63.8124222230  MEMB      12              0.0000000000
      1569        18  POPC      H12B           46.6545291017       46.6062987286       65.2222780343  MEMB      12              0.0000000000
      1570        18  POPC      C13            44.7425131063       45.0309876359       66.7747208432  MEMB      12              0.0000000000
      1571        18  POPC      H13A           44.4429704816       44.1023313270       67.2293976953  MEMB      12              0.0000000000
      1572        18  POPC      H13B           45.2584056052       45.6691875513       67.4805437831  MEMB      12              0.0000000000
      1573        18  POPC      H13C           43.8389946995       45.5841547254       66.4763186785  MEMB      12              0.0000000000
      1574        18  POPC      C14            44.7865908165       43.9042580529       64.6195449357  MEMB      12              0.0000000000
      1575        18  POPC      H14A           45.2707508867       43.7615514191       63.6619423731  MEMB      12              0.0000000000
      1576        18  POPC      H14B           44.6378639493       42.9112730333       65.0415709087  MEMB      12              0.0000000000
      1577        18  POPC      H14C           43.8039439851       44.3390419810       64.4420221381  MEMB      12              0.0000000000
      1578        18  POPC      C15            46.8846753732       44.1778910390       65.8650907643  MEMB      12              0.0000000000
      1579        18  POPC      H15A           47.5240878827       44.0420387052       64.9893483850  MEMB      12              0.0000000000
      1580        18  POPC      H15B           46.7584952656       43.1880801831       66.2998242701  MEMB      12              0.0000000000
      1581        18  POPC      H15C           47.4380065363       44.7649009064       66.5894698302  MEMB      12              0.0000000000
      1582        18  POPC      C11            44.6125851166       47.2724920230       65.1386190400  MEMB      12              0.0000000000
      1583        18  POPC      H11A           44.8697367673       48.1442445512       64.4905809842  MEMB      12              0.0000000000
      1584        18  POPC      H11B           44.6815898482       47.6338571317       66.1900869301  MEMB      12              0.0000000000
      1585        18  POPC      P              42.1203268119       47.8793294256       64.5825599784  MEMB      12              0.0000000000
      1586        18  POPC      O13            42.3511174066       49.1278592415       65.3657736537  MEMB      12              0.0000000000
      1587        18  POPC      O14            40.7904712790       47.2438884381       64.7145543093  MEMB      12              0.0000000000
      1588        18  POPC      O12            43.2787152329       46.8097934863       64.8894569227  MEMB      12              0.0000000000
      1589        18  POPC      O11            42.4288733636       48.1351253641       63.0588382889  MEMB      12              0.0000000000
      1590        18  POPC      C1             41.7780301061       49.1569313439       62.3070212207  MEMB      12              0.0000000000
      1591        18  POPC      HA             42.5406114494       49.6878332113       61.6953576846  MEMB      12              0.0000000000
      1592        18  POPC      HB             41.2836009517       49.9253723529       62.9468774754  MEMB      12              0.0000000000
      1593        18  POPC      C2             40.7586992657       48.5271670654       61.3330956968  MEMB      12              0.0000000000
      1594        18  POPC      HS             40.0839924312       47.9002187902       61.9678637654  MEMB      12              0.0000000000
      1595        18  POPC      O21            41.4947682388       47.7310222045       60.3805861422  MEMB      12              0.0000000000
      1596        18  POPC      C21            40.7658049020       46.7493436660       59.8637343274  MEMB      12              0.0000000000
      1597        18  POPC      O22            39.5995398576       46.5338172702       60.1524404678  MEMB      12              0.0000000000
      1598        18  POPC      C22            41.5706614143       45.9545969891       58.8416670768  MEMB      12              0.0000000000
      1599        18  POPC      H2R            40.9376279583       45.1031880481       58.5178854389  MEMB      12              0.0000000000
      1600        18  POPC      H2S            42.4701587735       45.5520421894       59.3489517290  MEMB      12              0.0000000000
      1601        18  POPC      C3             39.9047605311       49.6036474138       60.5996725099  MEMB      12              0.0000000000
      1602        18  POPC      HX             39.2530717483       50.0892096021       61.3581682691  MEMB      12              0.0000000000
      1603        18  POPC      HY             39.2394891794       49.1202770281       59.8515497610  MEMB      12              0.0000000000
      1604        18  POPC      O31            40.7472721333       50.6140815220       60.0221106733  MEMB      12              0.0000000000
      1605        18  POPC      C31            41.1785567254       50.3979911536       58.7926912470  MEMB      12              0.0000000000
      1606        18  POPC      O32            40.6926312516       49.6407131936       57.9764938366  MEMB      12              0.0000000000
      1607        18  POPC      C32            42.4157858787       51.2646725467       58.5851175998  MEMB      12              0.0000000000
      1608        18  POPC      H2X            42.9889409481       51.2226528639       59.5360538033  MEMB      12              0.0000000000
      1609        18  POPC      H2Y            42.0897789578       52.3072946287       58.3974740125  MEMB      12              0.0000000000
      1610        18  POPC      C23            41.9813420412       46.8024791398       57.6252349819  MEMB      12              0.0000000000
      1611        18  POPC      H3R            42.6781208914       47.6005384503       57.9687451443  MEMB      12              0.0000000000
      1612        18  POPC      H3S            41.0830861969       47.2963028260       57.1862910038  MEMB      12              0.0000000000
      1613        18  POPC      C24            42.6604522578       45.9730948012       56.5343637506  MEMB      12              0.0000000000
      1614        18  POPC      H4R            41.9123166043       45.2829803263       56.0831139760  MEMB      12              0.0000000000
      1615        18  POPC      H4S            43.4573468456       45.3471353411       57.0014932385  MEMB      12              0.0000000000
      1616        18  POPC      C25            43.2916488978       46.8459517589       55.4387278934  MEMB      12              0.0000000000
      1617        18  POPC      H5R            43.7497849038       46.1858814576       54.6696805159  MEMB      12              0.0000000000
      1618        18  POPC      H5S            44.1133494782       47.4398988744       55.8994541123  MEMB      12              0.0000000000
      1619        18  POPC      C26            42.3266214668       47.8231000003       54.7393153253  MEMB      12              0.0000000000
      1620        18  POPC      H6R            42.9226472184       48.4183340791       54.0120158392  MEMB      12              0.0000000000
      1621        18  POPC      H6S            41.9025010272       48.5451651840       55.4734216099  MEMB      12              0.0000000000
      1622        18  POPC      C27            41.1747020368       47.1296214212       53.9920597529  MEMB      12              0.0000000000
      1623        18  POPC      H7R            40.4515018606       46.7422499473       54.7463655475  MEMB      12              0.0000000000
      1624        18  POPC      H7S            41.5688043991       46.2519578043       53.4342654191  MEMB      12              0.0000000000
      1625        18  POPC      C28            40.4154388774       48.0600470669       53.0172708962  MEMB      12              0.0000000000
      1626        18  POPC      H8R            40.1620656287       48.9968923211       53.5641675251  MEMB      12              0.0000000000
      1627        18  POPC      H8S            39.4499196176       47.5614763464       52.7718982900  MEMB      12              0.0000000000
      1628        18  POPC      C29            41.1840522497       48.3715861479       51.7520337746  MEMB      12              0.0000000000
      1629        18  POPC      H91            42.2799003697       48.3055796308       51.8409475720  MEMB      12              0.0000000000
      1630        18  POPC      C210           40.6534825838       48.7159580008       50.5604725276  MEMB      12              0.0000000000
      1631        18  POPC      H101           41.3285090025       48.8872215566       49.7072423513  MEMB      12              0.0000000000
      1632        18  POPC      C211           39.1835152122       48.8646822886       50.2518094334  MEMB      12              0.0000000000
      1633        18  POPC      H11R           39.0094306553       49.7310651962       49.5756521736  MEMB      12              0.0000000000
      1634        18  POPC      H11S           38.6207779934       49.0840252463       51.1863715451  MEMB      12              0.0000000000
      1635        18  POPC      C212           38.5551775647       47.6026972331       49.6312766922  MEMB      12              0.0000000000
      1636        18  POPC      H12R           37.4494003443       47.7086475421       49.6596850650  MEMB      12              0.0000000000
      1637        18  POPC      H12S           38.8061157916       46.7246419336       50.2692874499  MEMB      12              0.0000000000
      1638        18  POPC      C213           38.9808845486       47.3002411543       48.1843734173  MEMB      12              0.0000000000
      1639        18  POPC      H13R           38.5152877129       46.3277884234       47.8979985529  MEMB      12              0.0000000000
      1640        18  POPC      H13S           40.0821531655       47.1642303948       48.1468891755  MEMB      12              0.0000000000
      1641        18  POPC      C214           38.5854329059       48.3526462702       47.1324800495  MEMB      12              0.0000000000
      1642        18  POPC      H14R           39.4011300452       49.1066713331       47.0579668295  MEMB      12              0.0000000000
      1643        18  POPC      H14S           37.6646940758       48.8903989041       47.4440603442  MEMB      12              0.0000000000
      1644        18  POPC      C215           38.3467019180       47.7046298247       45.7562268650  MEMB      12              0.0000000000
      1645        18  POPC      H15R           37.3532975923       47.2092582490       45.7359931428  MEMB      12              0.0000000000
      1646        18  POPC      H15S           39.0954833402       46.8941187877       45.6330473278  MEMB      12              0.0000000000
      1647        18  POPC      C216           38.4990030686       48.6536442136       44.5565033491  MEMB      12              0.0000000000
      1648        18  POPC      H16R           38.4671914438       48.0493375151       43.6208268084  MEMB      12              0.0000000000
      1649        18  POPC      H16S           39.5045477524       49.1270216951       44.6086675683  MEMB      12              0.0000000000
      1650        18  POPC      C217           37.4287180437       49.7461081141       44.4510807312  MEMB      12              0.0000000000
      1651        18  POPC      H17R           37.3655737664       50.2932980526       45.4189877983  MEMB      12              0.0000000000
      1652        18  POPC      H17S           36.4384755065       49.2775704118       44.2532185248  MEMB      12              0.0000000000
      1653        18  POPC      C218           37.7177019308       50.7433754118       43.3320450045  MEMB      12              0.0000000000
      1654        18  POPC      H18R           38.7473624987       51.1372761073       43.4435446928  MEMB      12              0.0000000000
      1655        18  POPC      H18S           37.0051743956       51.5945354919       43.3642251604  MEMB      12              0.0000000000
      1656        18  POPC      H18T           37.6366290596       50.2540060310       42.3377422625  MEMB      12              0.0000000000
      1657        18  POPC      C33            43.3460199126       50.7874152303       57.4517551204  MEMB      12              0.0000000000
      1658        18  POPC      H3X            43.0102968161       51.2510969146       56.5012290213  MEMB      12              0.0000000000
      1659        18  POPC      H3Y            43.2817466561       49.6846745505       57.3185085214  MEMB      12              0.0000000000
      1660        18  POPC      C34            44.8133670943       51.1465630402       57.7421066864  MEMB      12              0.0000000000
      1661        18  POPC      H4X            45.2171768503       50.4083776084       58.4711413114  MEMB      12              0.0000000000
      1662        18  POPC      H4Y            44.8519626539       52.1439968175       58.2388018144  MEMB      12              0.0000000000
      1663        18  POPC      C35            45.7215855269       51.1881520186       56.5023566342  MEMB      12              0.0000000000
      1664        18  POPC      H5X            46.7845598860       51.2431322765       56.8284942690  MEMB      12              0.0000000000
      1665        18  POPC      H5Y            45.5036315630       52.1244603420       55.9414405846  MEMB      12              0.0000000000
      1666        18  POPC      C36            45.5531018416       50.0095363021       55.5317376832  MEMB      12              0.0000000000
      1667        18  POPC      H6X            44.4830926671       49.9223382738       55.2401932362  MEMB      12              0.0000000000
      1668        18  POPC      H6Y            45.8385765733       49.0634671087       56.0376805589  MEMB      12              0.0000000000
      1669        18  POPC      C37            46.3668424916       50.2042640170       54.2411293727  MEMB      12              0.0000000000
      1670        18  POPC      H7X            47.4512895551       50.0869084869       54.4546553772  MEMB      12              0.0000000000
      1671        18  POPC      H7Y            46.2089326803       51.2522746349       53.8932052501  MEMB      12              0.0000000000
      1672        18  POPC      C38            45.9412423815       49.2661127091       53.0994272893  MEMB      12              0.0000000000
      1673        18  POPC      H8X            46.4307253321       49.6144407008       52.1620338537  MEMB      12              0.0000000000
      1674        18  POPC      H8Y            44.8410827522       49.3511251831       52.9534847303  MEMB      12              0.0000000000
      1675        18  POPC      C39            46.3106944402       47.7951166229       53.3375802457  MEMB      12              0.0000000000
      1676        18  POPC      H9X            45.9558798459       47.4882589127       54.3453735359  MEMB      12              0.0000000000
      1677        18  POPC      H9Y            47.4182274664       47.6998807985       53.3239522970  MEMB      12              0.0000000000
      1678        18  POPC      C310           45.7186053988       46.8203171669       52.3065400791  MEMB      12              0.0000000000
      1679        18  POPC      H10X           44.6070799606       46.8493234664       52.3686293798  MEMB      12              0.0000000000
      1680        18  POPC      H10Y           46.0435354290       45.7886664055       52.5702713659  MEMB      12              0.0000000000
      1681        18  POPC      C311           46.1452526969       47.1259263283       50.8647110497  MEMB      12              0.0000000000
      1682        18  POPC      H11X           47.2537951229       47.1951263578       50.8126866868  MEMB      12              0.0000000000
      1683        18  POPC      H11Y           45.7249946248       48.1150311825       50.5788009244  MEMB      12              0.0000000000
      1684        18  POPC      C312           45.6694194329       46.0618641311       49.8665708179  MEMB      12              0.0000000000
      1685        18  POPC      H12X           44.5899242170       45.8576731221       50.0495151335  MEMB      12              0.0000000000
      1686        18  POPC      H12Y           46.2275880288       45.1158814504       50.0517772557  MEMB      12              0.0000000000
      1687        18  POPC      C313           45.8393597335       46.4730227254       48.3933438458  MEMB      12              0.0000000000
      1688        18  POPC      H13X           45.5220852944       45.6118329570       47.7622054374  MEMB      12              0.0000000000
      1689        18  POPC      H13Y           46.9101248485       46.6757780180       48.1719121929  MEMB      12              0.0000000000
      1690        18  POPC      C314           44.9919375404       47.6981874556       48.0099712068  MEMB      12              0.0000000000
      1691        18  POPC      H14X           45.4304203802       48.6243864049       48.4402491534  MEMB      12              0.0000000000
      1692        18  POPC      H14Y           43.9876723863       47.5657873711       48.4701244384  MEMB      12              0.0000000000
      1693        18  POPC      C315           44.8117977505       47.8741266360       46.4948649585  MEMB      12              0.0000000000
      1694        18  POPC      H15X           43.8301087227       48.3672754467       46.3035457405  MEMB      12              0.0000000000
      1695        18  POPC      H15Y           44.7739407563       46.8739150216       46.0130874753  MEMB      12              0.0000000000
      1696        18  POPC      C316           45.9084446814       48.7096260235       45.8336153417  MEMB      12              0.0000000000
      1697        18  POPC      H16X           45.9397241971       49.7315179677       46.2673615787  MEMB      12              0.0000000000
      1698        18  POPC      H16Y           45.7280138065       48.7941845736       44.7403796231  MEMB      12              0.0000000000
      1699        18  POPC      H16Z           46.8969632007       48.2309718370       45.9882716198  MEMB      12              0.0000000000
      1700        19  POPS      N              38.0655668882       50.0922458852       64.7997024825  MEMB      13              0.0000000000
      1701        19  POPS      HN1            38.9135999308       50.7018889577       64.8340964504  MEMB      13              0.0000000000
      1702        19  POPS      HN2            38.3863780304       49.1135213980       65.0085194657  MEMB      13              0.0000000000
      1703        19  POPS      HN3            37.5702973246       50.1323341239       63.8898163420  MEMB      13              0.0000000000
      1704        19  POPS      C12            37.0881331602       50.4698977196       65.8931345052  MEMB      13              0.0000000000
      1705        19  POPS      H12A           37.2429867652       51.4992220576       66.1795870086  MEMB      13              0.0000000000
      1706        19  POPS      C13            37.2714102687       49.5712992962       67.1152661503  MEMB      13              0.0000000000
      1707        19  POPS      O13A           37.9271146453       48.5029881842       67.0084893422  MEMB      13              0.0000000000
      1708        19  POPS      O13B           36.6758504817       49.9106037601       68.1721965516  MEMB      13              0.0000000000
      1709        19  POPS      C11            35.5879496915       50.2061027654       65.5349565360  MEMB      13              0.0000000000
      1710        19  POPS      H11A           35.0098145391       50.2362061525       66.4963849335  MEMB      13              0.0000000000
      1711        19  POPS      H11B           35.4623452072       49.1742313967       65.1287007589  MEMB      13              0.0000000000
      1712        19  POPS      P              33.4487136880       51.0883669725       64.4373320910  MEMB      13              0.0000000000
      1713        19  POPS      O13            32.9749477124       52.3752603673       63.8849678670  MEMB      13              0.0000000000
      1714        19  POPS      O14            32.8169502841       50.5927050846       65.6809163005  MEMB      13              0.0000000000
      1715        19  POPS      O12            35.0434683537       51.1854279082       64.6476418839  MEMB      13              0.0000000000
      1716        19  POPS      O11            33.4020408576       49.9484170833       63.3429974870  MEMB      13              0.0000000000
      1717        19  POPS      C1             34.4501439615       49.7847593193       62.3817161009  MEMB      13              0.0000000000
      1718        19  POPS      HA             35.2839901682       49.2152817969       62.8406976532  MEMB      13              0.0000000000
      1719        19  POPS      HB             34.8312040930       50.7589531558       61.9916782779  MEMB      13              0.0000000000
      1720        19  POPS      C2             33.8602072209       48.9869099771       61.2029311580  MEMB      13              0.0000000000
      1721        19  POPS      HS             33.3116979249       48.1186418494       61.6403300611  MEMB      13              0.0000000000
      1722        19  POPS      O21            34.8573373051       48.5225952807       60.2498660384  MEMB      13              0.0000000000
      1723        19  POPS      C21            35.5530138404       47.4384581392       60.6280880326  MEMB      13              0.0000000000
      1724        19  POPS      O22            35.5682504094       46.9836306694       61.7562600810  MEMB      13              0.0000000000
      1725        19  POPS      C22            36.2669652272       46.7690160080       59.4514278753  MEMB      13              0.0000000000
      1726        19  POPS      H2R            35.5652289495       46.0881983624       58.9377899595  MEMB      13              0.0000000000
      1727        19  POPS      H2S            37.0647112369       46.1430268132       59.9042748026  MEMB      13              0.0000000000
      1728        19  POPS      C3             32.7889243989       49.8725674201       60.4758991682  MEMB      13              0.0000000000
      1729        19  POPS      HX             32.0003969169       50.0560174591       61.2466028175  MEMB      13              0.0000000000
      1730        19  POPS      HY             32.3453443860       49.2796350612       59.6495696139  MEMB      13              0.0000000000
      1731        19  POPS      O31            33.3154051547       51.1134446755       59.9518467285  MEMB      13              0.0000000000
      1732        19  POPS      C31            32.4042621979       52.0836731827       59.7708679831  MEMB      13              0.0000000000
      1733        19  POPS      O32            31.2295206765       52.0038922697       60.0689310631  MEMB      13              0.0000000000
      1734        19  POPS      C32            33.1014392758       53.2311743225       59.0247836150  MEMB      13              0.0000000000
      1735        19  POPS      H2X            34.1995152804       53.1093097400       59.1334435011  MEMB      13              0.0000000000
      1736        19  POPS      H2Y            32.8040327555       54.1722781410       59.5346372112  MEMB      13              0.0000000000
      1737        19  POPS      C23            36.9860490600       47.6967237313       58.4459188435  MEMB      13              0.0000000000
      1738        19  POPS      H3R            37.8492112597       47.1157556280       58.0369096476  MEMB      13              0.0000000000
      1739        19  POPS      H3S            37.4021116556       48.5973882581       58.9411625000  MEMB      13              0.0000000000
      1740        19  POPS      C24            36.1194662734       48.1080831900       57.2557572188  MEMB      13              0.0000000000
      1741        19  POPS      H4R            35.4842851384       48.9745514057       57.5481136091  MEMB      13              0.0000000000
      1742        19  POPS      H4S            35.4426485392       47.2701074496       56.9792185744  MEMB      13              0.0000000000
      1743        19  POPS      C25            36.9687858562       48.4620201368       56.0281670527  MEMB      13              0.0000000000
      1744        19  POPS      H5R            37.4667996614       47.5409531702       55.6479167302  MEMB      13              0.0000000000
      1745        19  POPS      H5S            37.7698737044       49.1800247082       56.3206464025  MEMB      13              0.0000000000
      1746        19  POPS      C26            36.1271527560       49.0875744013       54.9131324681  MEMB      13              0.0000000000
      1747        19  POPS      H6R            35.7516486849       50.0716538149       55.2723409417  MEMB      13              0.0000000000
      1748        19  POPS      H6S            35.2436490066       48.4413512115       54.7104632509  MEMB      13              0.0000000000
      1749        19  POPS      C27            36.9207981175       49.2782984536       53.6141439024  MEMB      13              0.0000000000
      1750        19  POPS      H7R            37.2259668465       48.2736669596       53.2423018133  MEMB      13              0.0000000000
      1751        19  POPS      H7S            37.8493407759       49.8565891432       53.8242811597  MEMB      13              0.0000000000
      1752        19  POPS      C28            36.1089824989       49.9788212204       52.5119729690  MEMB      13              0.0000000000
      1753        19  POPS      H8R            35.1348147969       49.4605135074       52.4253537448  MEMB      13              0.0000000000
      1754        19  POPS      H8S            36.6161377933       49.8180381333       51.5380988171  MEMB      13              0.0000000000
      1755        19  POPS      C29            35.8879181786       51.4449319265       52.7875956255  MEMB      13              0.0000000000
      1756        19  POPS      H91            35.1827360821       51.6583632823       53.6026995015  MEMB      13              0.0000000000
      1757        19  POPS      C210           36.4753209927       52.4827787393       52.1697601247  MEMB      13              0.0000000000
      1758        19  POPS      H101           36.1872013870       53.5023104704       52.4677449386  MEMB      13              0.0000000000
      1759        19  POPS      C211           37.4919623882       52.4104515329       51.0610081677  MEMB      13              0.0000000000
      1760        19  POPS      H11R           37.7633123776       51.3673794897       50.7910904194  MEMB      13              0.0000000000
      1761        19  POPS      H11S           38.4306456364       52.8740278987       51.4307610047  MEMB      13              0.0000000000
      1762        19  POPS      C212           37.0599663898       53.1322933902       49.7693008479  MEMB      13              0.0000000000
      1763        19  POPS      H12R           37.9776216952       53.2709634794       49.1540837749  MEMB      13              0.0000000000
      1764        19  POPS      H12S           36.6681628052       54.1494728974       49.9859491272  MEMB      13              0.0000000000
      1765        19  POPS      C213           36.0607154162       52.3392011805       48.9099135340  MEMB      13              0.0000000000
      1766        19  POPS      H13R           36.2655603977       51.2492514386       48.9965798423  MEMB      13              0.0000000000
      1767        19  POPS      H13S           36.2149143042       52.6225021957       47.8428219963  MEMB      13              0.0000000000
      1768        19  POPS      C214           34.5933500508       52.6241936221       49.2542729259  MEMB      13              0.0000000000
      1769        19  POPS      H14R           34.4245024742       53.7213272760       49.1823645983  MEMB      13              0.0000000000
      1770        19  POPS      H14S           34.3813390044       52.3114639843       50.3001580688  MEMB      13              0.0000000000
      1771        19  POPS      C215           33.6241528879       51.8885760842       48.3181290027  MEMB      13              0.0000000000
      1772        19  POPS      H15R           33.7903373167       50.7940703108       48.4327532363  MEMB      13              0.0000000000
      1773        19  POPS      H15S           33.8611466185       52.1561829293       47.2650250468  MEMB      13              0.0000000000
      1774        19  POPS      C216           32.1412634870       52.1767011577       48.6015980059  MEMB      13              0.0000000000
      1775        19  POPS      H16R           31.8938196525       51.7657800155       49.6060505460  MEMB      13              0.0000000000
      1776        19  POPS      H16S           31.5258069543       51.6284736077       47.8529484866  MEMB      13              0.0000000000
      1777        19  POPS      C217           31.7535887309       53.6628936922       48.5784400940  MEMB      13              0.0000000000
      1778        19  POPS      H17R           32.2586885022       54.1845494731       49.4220899977  MEMB      13              0.0000000000
      1779        19  POPS      H17S           30.6602050160       53.7313529199       48.7673008774  MEMB      13              0.0000000000
      1780        19  POPS      C218           32.0715934870       54.3956187877       47.2723663822  MEMB      13              0.0000000000
      1781        19  POPS      H18R           31.7709005938       55.4617488201       47.3453875752  MEMB      13              0.0000000000
      1782        19  POPS      H18S           31.5135693163       53.9405941643       46.4271474033  MEMB      13              0.0000000000
      1783        19  POPS      H18T           33.1587704800       54.3556877538       47.0466344559  MEMB      13              0.0000000000
      1784        19  POPS      C33            32.7312776779       53.3166072555       57.5172234949  MEMB      13              0.0000000000
      1785        19  POPS      H3X            33.2714252200       54.1892557777       57.0816624607  MEMB      13              0.0000000000
      1786        19  POPS      H3Y            31.6411440572       53.5234800178       57.4248058021  MEMB      13              0.0000000000
      1787        19  POPS      C34            33.0831963516       52.0697561800       56.6767468343  MEMB      13              0.0000000000
      1788        19  POPS      H4X            32.4642372510       51.2138809119       57.0312030856  MEMB      13              0.0000000000
      1789        19  POPS      H4Y            34.1498023408       51.7905642767       56.8235380410  MEMB      13              0.0000000000
      1790        19  POPS      C35            32.8221431645       52.2736524747       55.1685828202  MEMB      13              0.0000000000
      1791        19  POPS      H5X            33.6526181813       52.8688500551       54.7323681530  MEMB      13              0.0000000000
      1792        19  POPS      H5Y            31.8936030457       52.8787182790       55.0579282083  MEMB      13              0.0000000000
      1793        19  POPS      C36            32.6281310482       50.9679914345       54.3674694459  MEMB      13              0.0000000000
      1794        19  POPS      H6X            31.8221675016       50.3793476884       54.8608531041  MEMB      13              0.0000000000
      1795        19  POPS      H6Y            33.5486435438       50.3485008624       54.4024380861  MEMB      13              0.0000000000
      1796        19  POPS      C37            32.2327389852       51.2270361864       52.8979640979  MEMB      13              0.0000000000
      1797        19  POPS      H7X            33.0969007275       51.6259317007       52.3259257566  MEMB      13              0.0000000000
      1798        19  POPS      H7Y            31.4492236856       52.0209467332       52.8963979360  MEMB      13              0.0000000000
      1799        19  POPS      C38            31.6442698359       50.0056894008       52.1632135547  MEMB      13              0.0000000000
      1800        19  POPS      H8X            31.1491299085       50.3544776025       51.2284370038  MEMB      13              0.0000000000
      1801        19  POPS      H8Y            30.8687707778       49.5355530015       52.7986772133  MEMB      13              0.0000000000
      1802        19  POPS      C39            32.6374783307       48.8985516878       51.8002348422  MEMB      13              0.0000000000
      1803        19  POPS      H9X            33.1325305698       48.5360136371       52.7285051875  MEMB      13              0.0000000000
      1804        19  POPS      H9Y            33.4166717667       49.3125344451       51.1231235474  MEMB      13              0.0000000000
      1805        19  POPS      C310           31.9310169131       47.7156933160       51.1167588391  MEMB      13              0.0000000000
      1806        19  POPS      H10X           31.5029303046       48.0587827359       50.1499170932  MEMB      13              0.0000000000
      1807        19  POPS      H10Y           31.0709262570       47.4086030899       51.7458760935  MEMB      13              0.0000000000
      1808        19  POPS      C311           32.8324811432       46.4910234898       50.8828467946  MEMB      13              0.0000000000
      1809        19  POPS      H11X           32.2327976982       45.6982715679       50.3785337011  MEMB      13              0.0000000000
      1810        19  POPS      H11Y           33.1604983475       46.0826311323       51.8650117302  MEMB      13              0.0000000000
      1811        19  POPS      C312           34.0734460015       46.7907918861       50.0310759766  MEMB      13              0.0000000000
      1812        19  POPS      H12X           34.6110880298       45.8386922040       49.8218767655  MEMB      13              0.0000000000
      1813        19  POPS      H12Y           34.7661947107       47.4482083526       50.6044733522  MEMB      13              0.0000000000
      1814        19  POPS      C313           33.7404853821       47.4815082844       48.7017580819  MEMB      13              0.0000000000
      1815        19  POPS      H13X           33.2550826125       48.4639801972       48.8924158939  MEMB      13              0.0000000000
      1816        19  POPS      H13Y           33.0247291146       46.8437984510       48.1372200075  MEMB      13              0.0000000000
      1817        19  POPS      C314           34.9905178366       47.7202607665       47.8556364072  MEMB      13              0.0000000000
      1818        19  POPS      H14X           35.3797663221       46.7334470573       47.5207492116  MEMB      13              0.0000000000
      1819        19  POPS      H14Y           35.7681969546       48.1915698042       48.4952974707  MEMB      13              0.0000000000
      1820        19  POPS      C315           34.7710777245       48.6325028344       46.6400347057  MEMB      13              0.0000000000
      1821        19  POPS      H15X           35.6020850168       48.4307530818       45.9359560884  MEMB      13              0.0000000000
      1822        19  POPS      H15Y           34.8656295012       49.6953794640       46.9523593400  MEMB      13              0.0000000000
      1823        19  POPS      C316           33.4463732934       48.4528030950       45.9001792581  MEMB      13              0.0000000000
      1824        19  POPS      H16X           32.6089249812       48.8764478427       46.4952821832  MEMB      13              0.0000000000
      1825        19  POPS      H16Y           33.2480133517       47.3764501853       45.7124602803  MEMB      13              0.0000000000
      1826        19  POPS      H16Z           33.4776425187       48.9790003069       44.9224246469  MEMB      13              0.0000000000
      1827        20  POPC      N              36.2995383469       18.5471379004       65.1430386081  MEMB      14              0.0000000000
      1828        20  POPC      C12            37.4297401147       18.6648450387       64.1263142356  MEMB      14              0.0000000000
      1829        20  POPC      H12A           38.1796001397       19.3236634922       64.5442624991  MEMB      14              0.0000000000
      1830        20  POPC      H12B           37.0461402111       19.0964301353       63.2130424183  MEMB      14              0.0000000000
      1831        20  POPC      C13            35.3990282356       17.4232491037       64.7412537394  MEMB      14              0.0000000000
      1832        20  POPC      H13A           35.0132651529       17.5647179853       63.7488721183  MEMB      14              0.0000000000
      1833        20  POPC      H13B           35.9602399489       16.4806452103       64.7339317082  MEMB      14              0.0000000000
      1834        20  POPC      H13C           34.5874197905       17.3049902541       65.4449615596  MEMB      14              0.0000000000
      1835        20  POPC      C14            36.8905535998       18.1583227243       66.4583421217  MEMB      14              0.0000000000
      1836        20  POPC      H14A           37.5277204265       17.2802796700       66.2906128989  MEMB      14              0.0000000000
      1837        20  POPC      H14B           37.5727064740       18.8994957752       66.8548762557  MEMB      14              0.0000000000
      1838        20  POPC      H14C           36.1319601999       17.8833454030       67.1721590387  MEMB      14              0.0000000000
      1839        20  POPC      C15            35.4969661599       19.7934726061       65.3024359760  MEMB      14              0.0000000000
      1840        20  POPC      H15A           34.7449441359       19.6875325351       66.0820701902  MEMB      14              0.0000000000
      1841        20  POPC      H15B           34.9682442194       20.0199253430       64.3914431799  MEMB      14              0.0000000000
      1842        20  POPC      H15C           36.1031994255       20.6599612535       65.5735702024  MEMB      14              0.0000000000
      1843        20  POPC      C11            38.1531444870       17.3561376453       63.6919451988  MEMB      14              0.0000000000
      1844        20  POPC      H11A           39.0594570673       17.6151195673       63.0983846622  MEMB      14              0.0000000000
      1845        20  POPC      H11B           37.4775741016       16.8050530744       62.9915924216  MEMB      14              0.0000000000
      1846        20  POPC      P              38.2694171601       15.0118071141       64.8578448111  MEMB      14              0.0000000000
      1847        20  POPC      O13            36.9415766853       14.7854569655       64.2568848753  MEMB      14              0.0000000000
      1848        20  POPC      O14            38.4806435626       14.5726536144       66.2575674472  MEMB      14              0.0000000000
      1849        20  POPC      O12            38.5473770385       16.5781167666       64.8196316413  MEMB      14              0.0000000000
      1850        20  POPC      O11            39.4272717320       14.5127198274       63.9007219320  MEMB      14              0.0000000000
      1851        20  POPC      C1             40.7921535812       14.5410795059       64.3387110394  MEMB      14              0.0000000000
      1852        20  POPC      HA             41.0773985460       13.5150454708       64.6691802178  MEMB      14              0.0000000000
      1853        20  POPC      HB             40.9447376958       15.2210399060       65.2111613457  MEMB      14              0.0000000000
      1854        20  POPC      C2             41.8129659700       15.0009586878       63.2415862592  MEMB      14              0.0000000000
      1855        20  POPC      HS             42.8101211268       14.9761973277       63.7165326098  MEMB      14              0.0000000000
      1856        20  POPC      O21            41.5185750316       16.3458231023       62.8211578996  MEMB      14              0.0000000000
      1857        20  POPC      C21            42.4915382748       17.0184314104       62.1843887434  MEMB      14              0.0000000000
      1858        20  POPC      O22            43.6001411346       16.5883393888       61.9287148332  MEMB      14              0.0000000000
      1859        20  POPC      C22            41.9457554362       18.3809585440       61.7443596266  MEMB      14              0.0000000000
      1860        20  POPC      H2R            42.8237962052       19.0428693411       61.6061618228  MEMB      14              0.0000000000
      1861        20  POPC      H2S            41.2974600066       18.7707694192       62.5531408158  MEMB      14              0.0000000000
      1862        20  POPC      C3             41.8395683190       14.0416957469       62.0142019427  MEMB      14              0.0000000000
      1863        20  POPC      HX             42.0083804809       13.0185262391       62.4184624309  MEMB      14              0.0000000000
      1864        20  POPC      HY             42.7282773471       14.2873526914       61.3855835720  MEMB      14              0.0000000000
      1865        20  POPC      O31            40.5987643976       14.0363471247       61.2786916510  MEMB      14              0.0000000000
      1866        20  POPC      C31            40.5445464124       14.8178377330       60.2221943681  MEMB      14              0.0000000000
      1867        20  POPC      O32            41.4846864529       15.4049149899       59.7204678797  MEMB      14              0.0000000000
      1868        20  POPC      C32            39.1069487824       14.9409080208       59.7754124700  MEMB      14              0.0000000000
      1869        20  POPC      H2X            38.6812930693       15.8572033872       60.2303911192  MEMB      14              0.0000000000
      1870        20  POPC      H2Y            38.5331108530       14.0712797556       60.1542251331  MEMB      14              0.0000000000
      1871        20  POPC      C23            41.1839409929       18.1744730971       60.4216796715  MEMB      14              0.0000000000
      1872        20  POPC      H3R            40.3866052726       17.4176205980       60.6106720009  MEMB      14              0.0000000000
      1873        20  POPC      H3S            41.8920156815       17.7592802766       59.6657196638  MEMB      14              0.0000000000
      1874        20  POPC      C24            40.4709321034       19.3554653200       59.7803851348  MEMB      14              0.0000000000
      1875        20  POPC      H4R            41.1881463243       20.1665435622       59.5316802037  MEMB      14              0.0000000000
      1876        20  POPC      H4S            39.7017719265       19.7307801159       60.4801101121  MEMB      14              0.0000000000
      1877        20  POPC      C25            39.7754697916       18.8881981172       58.4948440081  MEMB      14              0.0000000000
      1878        20  POPC      H5R            39.0003477760       18.1271437511       58.7398704431  MEMB      14              0.0000000000
      1879        20  POPC      H5S            40.5341806005       18.3839842102       57.8520296983  MEMB      14              0.0000000000
      1880        20  POPC      C26            39.1395992939       20.0246567062       57.6953677899  MEMB      14              0.0000000000
      1881        20  POPC      H6R            39.9327743687       20.7612913488       57.4396795568  MEMB      14              0.0000000000
      1882        20  POPC      H6S            38.3703500189       20.5393363575       58.3127468723  MEMB      14              0.0000000000
      1883        20  POPC      C27            38.4765266401       19.5127971304       56.4099358639  MEMB      14              0.0000000000
      1884        20  POPC      H7R            37.6065783751       18.8802139527       56.7004439616  MEMB      14              0.0000000000
      1885        20  POPC      H7S            39.1832758625       18.8527651268       55.8564318000  MEMB      14              0.0000000000
      1886        20  POPC      C28            37.9894584721       20.6480802184       55.4937880132  MEMB      14              0.0000000000
      1887        20  POPC      H8R            37.4126097790       21.3807553857       56.0991905764  MEMB      14              0.0000000000
      1888        20  POPC      H8S            37.2667206603       20.2115375133       54.7687105737  MEMB      14              0.0000000000
      1889        20  POPC      C29            39.1390452653       21.3392424896       54.7970407287  MEMB      14              0.0000000000
      1890        20  POPC      H91            39.8238278241       21.8937889051       55.4579250854  MEMB      14              0.0000000000
      1891        20  POPC      C210           39.3897058270       21.3094863552       53.4753719120  MEMB      14              0.0000000000
      1892        20  POPC      H101           40.2582538016       21.8556039573       53.0732113926  MEMB      14              0.0000000000
      1893        20  POPC      C211           38.5563012357       20.5722303866       52.4593618370  MEMB      14              0.0000000000
      1894        20  POPC      H11R           37.7537014018       21.2467035308       52.0882798267  MEMB      14              0.0000000000
      1895        20  POPC      H11S           38.0557011268       19.6827289810       52.9051621265  MEMB      14              0.0000000000
      1896        20  POPC      C212           39.3441326604       20.0685393452       51.2395944273  MEMB      14              0.0000000000
      1897        20  POPC      H12R           39.7339019468       20.9323870543       50.6563386443  MEMB      14              0.0000000000
      1898        20  POPC      H12S           38.6317977958       19.5071379357       50.5958022781  MEMB      14              0.0000000000
      1899        20  POPC      C213           40.4877189253       19.1096180675       51.5772043164  MEMB      14              0.0000000000
      1900        20  POPC      H13R           40.1354264221       18.3701649596       52.3326824450  MEMB      14              0.0000000000
      1901        20  POPC      H13S           41.3089526865       19.6940217918       52.0363817092  MEMB      14              0.0000000000
      1902        20  POPC      C214           41.0156617827       18.3497665553       50.3531848606  MEMB      14              0.0000000000
      1903        20  POPC      H14R           40.2676826233       17.5679086892       50.0814868673  MEMB      14              0.0000000000
      1904        20  POPC      H14S           41.9564932738       17.8244044843       50.6295993972  MEMB      14              0.0000000000
      1905        20  POPC      C215           41.2626744612       19.2187515081       49.1071486264  MEMB      14              0.0000000000
      1906        20  POPC      H15R           41.9890236373       20.0278972540       49.3240375015  MEMB      14              0.0000000000
      1907        20  POPC      H15S           40.3085077809       19.6965822866       48.7945173535  MEMB      14              0.0000000000
      1908        20  POPC      C216           41.7574178598       18.3570840994       47.9414686097  MEMB      14              0.0000000000
      1909        20  POPC      H16R           41.0122876286       17.5417715102       47.8431231616  MEMB      14              0.0000000000
      1910        20  POPC      H16S           42.7433083999       17.9057974202       48.1888264594  MEMB      14              0.0000000000
      1911        20  POPC      C217           41.8379498520       19.0771267349       46.5937202213  MEMB      14              0.0000000000
      1912        20  POPC      H17R           42.5887218709       19.8930037937       46.6560227567  MEMB      14              0.0000000000
      1913        20  POPC      H17S           40.8477656468       19.5439058545       46.3980806361  MEMB      14              0.0000000000
      1914        20  POPC      C218           42.1964942811       18.1469440812       45.4276586809  MEMB      14              0.0000000000
      1915        20  POPC      H18R           43.1654834867       17.6388709289       45.6192987029  MEMB      14              0.0000000000
      1916        20  POPC      H18S           42.2841274144       18.7227501376       44.4814182487  MEMB      14              0.0000000000
      1917        20  POPC      H18T           41.4119347062       17.3714727038       45.2943680978  MEMB      14              0.0000000000
      1918        20  POPC      C33            38.9820416737       14.9930976978       58.2462935811  MEMB      14              0.0000000000
      1919        20  POPC      H3X            39.4796848995       14.1022077178       57.7965879403  MEMB      14              0.0000000000
      1920        20  POPC      H3Y            39.4830601257       15.9024391411       57.8437136513  MEMB      14              0.0000000000
      1921        20  POPC      C34            37.5005510648       14.9972257051       57.8677792931  MEMB      14              0.0000000000
      1922        20  POPC      H4X            36.9901363062       15.8025488501       58.4443987027  MEMB      14              0.0000000000
      1923        20  POPC      H4Y            37.0474251333       14.0262186386       58.1740068622  MEMB      14              0.0000000000
      1924        20  POPC      C35            37.2569969829       15.2248267446       56.3783980159  MEMB      14              0.0000000000
      1925        20  POPC      H5X            37.7219334237       16.1912962242       56.0846889764  MEMB      14              0.0000000000
      1926        20  POPC      H5Y            36.1567300577       15.3154844679       56.2217131474  MEMB      14              0.0000000000
      1927        20  POPC      C36            37.7824494184       14.0908401593       55.4864668127  MEMB      14              0.0000000000
      1928        20  POPC      H6X            37.3983276341       13.1238279161       55.8904508679  MEMB      14              0.0000000000
      1929        20  POPC      H6Y            38.8923026894       14.0502278704       55.5120542294  MEMB      14              0.0000000000
      1930        20  POPC      C37            37.3011356783       14.2357949031       54.0358935570  MEMB      14              0.0000000000
      1931        20  POPC      H7X            36.1975767251       14.2872886186       54.0804059614  MEMB      14              0.0000000000
      1932        20  POPC      H7Y            37.5632044812       13.3207219020       53.4662734334  MEMB      14              0.0000000000
      1933        20  POPC      C38            37.8475680950       15.4745407119       53.3059568141  MEMB      14              0.0000000000
      1934        20  POPC      H8X            38.9211790230       15.3049943350       53.0719238040  MEMB      14              0.0000000000
      1935        20  POPC      H8Y            37.7937134772       16.3632199516       53.9730984586  MEMB      14              0.0000000000
      1936        20  POPC      C39            37.0883174254       15.8415986150       52.0173250932  MEMB      14              0.0000000000
      1937        20  POPC      H9X            37.6372369798       16.6722843735       51.5152546706  MEMB      14              0.0000000000
      1938        20  POPC      H9Y            36.0837820928       16.2348991162       52.2875369715  MEMB      14              0.0000000000
      1939        20  POPC      C310           36.9138112676       14.6889411229       51.0182838086  MEMB      14              0.0000000000
      1940        20  POPC      H10X           36.4106277881       15.0914411293       50.1111736402  MEMB      14              0.0000000000
      1941        20  POPC      H10Y           36.2401961960       13.9109978869       51.4411511016  MEMB      14              0.0000000000
      1942        20  POPC      C311           38.2463280158       14.0417610869       50.6223733609  MEMB      14              0.0000000000
      1943        20  POPC      H11X           38.5418436294       13.3272454209       51.4229263288  MEMB      14              0.0000000000
      1944        20  POPC      H11Y           39.0405081296       14.8208641427       50.5740534206  MEMB      14              0.0000000000
      1945        20  POPC      C312           38.1943942924       13.3085266072       49.2768940657  MEMB      14              0.0000000000
      1946        20  POPC      H12X           37.1641164035       12.9544902830       49.0590024601  MEMB      14              0.0000000000
      1947        20  POPC      H12Y           38.8442030708       12.4047887721       49.3606332017  MEMB      14              0.0000000000
      1948        20  POPC      C313           38.7420884042       14.1564311141       48.1182086461  MEMB      14              0.0000000000
      1949        20  POPC      H13X           38.8715397843       13.5115357113       47.2224569197  MEMB      14              0.0000000000
      1950        20  POPC      H13Y           39.7497862933       14.5296500278       48.4063459249  MEMB      14              0.0000000000
      1951        20  POPC      C314           37.8854034062       15.3602466917       47.7086834463  MEMB      14              0.0000000000
      1952        20  POPC      H14X           37.7845215289       16.0589400180       48.5688066695  MEMB      14              0.0000000000
      1953        20  POPC      H14Y           36.8686508892       15.0100371968       47.4243958783  MEMB      14              0.0000000000
      1954        20  POPC      C315           38.5219588555       16.1183671115       46.5342254498  MEMB      14              0.0000000000
      1955        20  POPC      H15X           38.7091465401       15.4080502220       45.6987901886  MEMB      14              0.0000000000
      1956        20  POPC      H15Y           39.5140273827       16.4946067591       46.8559612375  MEMB      14              0.0000000000
      1957        20  POPC      C316           37.6879976921       17.2914638822       46.0239947384  MEMB      14              0.0000000000
      1958        20  POPC      H16X           38.1985849295       17.8018247715       45.1798324843  MEMB      14              0.0000000000
      1959        20  POPC      H16Y           37.5226605446       18.0281169490       46.8382169955  MEMB      14              0.0000000000
      1960        20  POPC      H16Z           36.6995515793       16.9319015025       45.6666505439  MEMB      14              0.0000000000
      1961        21  POPC      N              20.7952719793       24.8915398141       63.7237011229  MEMB      15              0.0000000000
      1962        21  POPC      C12            21.7694111766       23.7652139029       64.0663079493  MEMB      15              0.0000000000
      1963        21  POPC      H12A           22.7192999410       24.2007289708       64.3504317671  MEMB      15              0.0000000000
      1964        21  POPC      H12B           21.9605340002       23.1560783706       63.1866906436  MEMB      15              0.0000000000
      1965        21  POPC      C13            19.5179890402       24.2725074793       63.2666354566  MEMB      15              0.0000000000
      1966        21  POPC      H13A           19.6470763847       23.6785213728       62.3789071569  MEMB      15              0.0000000000
      1967        21  POPC      H13B           19.1688345583       23.5830058792       64.0433448706  MEMB      15              0.0000000000
      1968        21  POPC      H13C           18.7476272509       25.0100180471       63.0893712555  MEMB      15              0.0000000000
      1969        21  POPC      C14            20.4686484419       25.7109786395       64.9365700818  MEMB      15              0.0000000000
      1970        21  POPC      H14A           19.9750194461       25.0965865590       65.6816699627  MEMB      15              0.0000000000
      1971        21  POPC      H14B           21.3278021401       26.2022613706       65.3703948935  MEMB      15              0.0000000000
      1972        21  POPC      H14C           19.7808911855       26.5334767097       64.7139371950  MEMB      15              0.0000000000
      1973        21  POPC      C15            21.3758129359       25.7929598345       62.6716749067  MEMB      15              0.0000000000
      1974        21  POPC      H15A           20.7409257749       26.6666062570       62.5243461205  MEMB      15              0.0000000000
      1975        21  POPC      H15B           21.4773261839       25.2718091727       61.7268588964  MEMB      15              0.0000000000
      1976        21  POPC      H15C           22.3432415713       26.1872383369       62.9804162591  MEMB      15              0.0000000000
      1977        21  POPC      C11            21.3493264516       22.7865061593       65.1919820281  MEMB      15              0.0000000000
      1978        21  POPC      H11A           21.0440104263       23.3766152970       66.0844554961  MEMB      15              0.0000000000
      1979        21  POPC      H11B           22.2701818543       22.2076972207       65.4713735623  MEMB      15              0.0000000000
      1980        21  POPC      P              20.0808836875       20.6287437336       65.7184133376  MEMB      15              0.0000000000
      1981        21  POPC      O13            19.7864064846       21.1347463292       67.0871613781  MEMB      15              0.0000000000
      1982        21  POPC      O14            21.2679206216       19.7642717423       65.5612011877  MEMB      15              0.0000000000
      1983        21  POPC      O12            20.2700190768       21.9230456498       64.7877913796  MEMB      15              0.0000000000
      1984        21  POPC      O11            18.8147153025       19.8518073409       65.1909913968  MEMB      15              0.0000000000
      1985        21  POPC      C1             18.1008492003       20.1596639213       64.0076274974  MEMB      15              0.0000000000
      1986        21  POPC      HA             18.1085714960       21.2455222023       63.7582782520  MEMB      15              0.0000000000
      1987        21  POPC      HB             17.0415402254       19.8814190374       64.2056157513  MEMB      15              0.0000000000
      1988        21  POPC      C2             18.5484376551       19.3437470088       62.7508328853  MEMB      15              0.0000000000
      1989        21  POPC      HS             19.0471361079       18.4045718819       63.0911293840  MEMB      15              0.0000000000
      1990        21  POPC      O21            19.4060201482       20.1765427295       61.9380987251  MEMB      15              0.0000000000
      1991        21  POPC      C21            20.0014227816       19.4959255146       60.9632944996  MEMB      15              0.0000000000
      1992        21  POPC      O22            20.1822276716       18.2934677700       60.9632196088  MEMB      15              0.0000000000
      1993        21  POPC      C22            20.3776316577       20.4480059276       59.8310733376  MEMB      15              0.0000000000
      1994        21  POPC      H2R            21.4535295778       20.6633891093       59.9404134965  MEMB      15              0.0000000000
      1995        21  POPC      H2S            19.8324458344       21.3950595753       59.9696860540  MEMB      15              0.0000000000
      1996        21  POPC      C3             17.2896421124       18.9974192090       61.9217809554  MEMB      15              0.0000000000
      1997        21  POPC      HX             16.7155807213       18.1963321326       62.3914496609  MEMB      15              0.0000000000
      1998        21  POPC      HY             17.5540516643       18.6339168793       60.9016231960  MEMB      15              0.0000000000
      1999        21  POPC      O31            16.4884523135       20.1818478055       61.9438393705  MEMB      15              0.0000000000
      2000        21  POPC      C31            15.9603055761       20.5639176585       60.8195912740  MEMB      15              0.0000000000
      2001        21  POPC      O32            15.7560272638       19.8749957956       59.8367714081  MEMB      15              0.0000000000
      2002        21  POPC      C32            15.8497480587       22.0781907164       60.9216680196  MEMB      15              0.0000000000
      2003        21  POPC      H2X            15.7536467920       22.3836527688       61.9847388347  MEMB      15              0.0000000000
      2004        21  POPC      H2Y            14.9534467460       22.4263458094       60.3886862463  MEMB      15              0.0000000000
      2005        21  POPC      C23            20.1045308901       19.8863104766       58.4130770813  MEMB      15              0.0000000000
      2006        21  POPC      H3R            20.5428863346       18.8723803773       58.2852637860  MEMB      15              0.0000000000
      2007        21  POPC      H3S            20.6216110747       20.5565083306       57.6882669599  MEMB      15              0.0000000000
      2008        21  POPC      C24            18.6148496551       19.8694374607       58.0213995958  MEMB      15              0.0000000000
      2009        21  POPC      H4R            18.1203879603       20.7912144281       58.3856051397  MEMB      15              0.0000000000
      2010        21  POPC      H4S            18.1072633984       19.0216300032       58.5250652192  MEMB      15              0.0000000000
      2011        21  POPC      C25            18.3979720325       19.8079289760       56.4967092884  MEMB      15              0.0000000000
      2012        21  POPC      H5R            19.1613760445       19.1409075244       56.0396033293  MEMB      15              0.0000000000
      2013        21  POPC      H5S            18.5577878624       20.8265546101       56.0859208130  MEMB      15              0.0000000000
      2014        21  POPC      C26            17.0042355101       19.3236483752       56.0535543779  MEMB      15              0.0000000000
      2015        21  POPC      H6R            16.2584377908       19.5986212304       56.8350478808  MEMB      15              0.0000000000
      2016        21  POPC      H6S            17.0088123851       18.2154422796       56.0060126698  MEMB      15              0.0000000000
      2017        21  POPC      C27            16.5015844988       19.8841830682       54.7005325410  MEMB      15              0.0000000000
      2018        21  POPC      H7R            16.0661254113       20.8797026167       54.9302489205  MEMB      15              0.0000000000
      2019        21  POPC      H7S            15.6602343412       19.2525536723       54.3398295194  MEMB      15              0.0000000000
      2020        21  POPC      C28            17.5579539810       20.1187045737       53.5874505354  MEMB      15              0.0000000000
      2021        21  POPC      H8R            18.5744855983       19.9587555974       53.9927651145  MEMB      15              0.0000000000
      2022        21  POPC      H8S            17.5197030703       21.2068979794       53.3521696216  MEMB      15              0.0000000000
      2023        21  POPC      C29            17.3641294423       19.3717635723       52.2879348977  MEMB      15              0.0000000000
      2024        21  POPC      H91            16.3693002930       19.4910209330       51.8311789930  MEMB      15              0.0000000000
      2025        21  POPC      C210           18.2814140212       18.6249485223       51.6398555505  MEMB      15              0.0000000000
      2026        21  POPC      H101           18.0001065310       18.1547903620       50.6842735099  MEMB      15              0.0000000000
      2027        21  POPC      C211           19.7063582083       18.3632350106       52.0706780579  MEMB      15              0.0000000000
      2028        21  POPC      H11R           19.9397120987       17.2904147903       51.9137000657  MEMB      15              0.0000000000
      2029        21  POPC      H11S           19.8373967282       18.5606998443       53.1584006857  MEMB      15              0.0000000000
      2030        21  POPC      C212           20.7817115279       19.2133695338       51.3753688076  MEMB      15              0.0000000000
      2031        21  POPC      H12R           21.7408878383       19.1134220164       51.9329054457  MEMB      15              0.0000000000
      2032        21  POPC      H12S           20.4770594806       20.2770877568       51.4543777628  MEMB      15              0.0000000000
      2033        21  POPC      C213           21.0357820693       18.8450309618       49.9074641792  MEMB      15              0.0000000000
      2034        21  POPC      H13R           20.2133136929       18.1889612647       49.5436219493  MEMB      15              0.0000000000
      2035        21  POPC      H13S           21.9876961059       18.2760611070       49.8288140668  MEMB      15              0.0000000000
      2036        21  POPC      C214           21.1162454820       20.0732219431       48.9921795413  MEMB      15              0.0000000000
      2037        21  POPC      H14R           20.1713629150       20.6465431922       49.1140823700  MEMB      15              0.0000000000
      2038        21  POPC      H14S           21.1775844588       19.7401248056       47.9337207972  MEMB      15              0.0000000000
      2039        21  POPC      C215           22.3043516623       20.9976071608       49.3047266401  MEMB      15              0.0000000000
      2040        21  POPC      H15R           23.2488544885       20.4839034318       49.0233229530  MEMB      15              0.0000000000
      2041        21  POPC      H15S           22.3453017084       21.1949747946       50.3980542574  MEMB      15              0.0000000000
      2042        21  POPC      C216           22.1953084295       22.3500826956       48.5822925808  MEMB      15              0.0000000000
      2043        21  POPC      H16R           21.1825471310       22.7699169414       48.7648870179  MEMB      15              0.0000000000
      2044        21  POPC      H16S           22.2718725563       22.1841255857       47.4892520911  MEMB      15              0.0000000000
      2045        21  POPC      C217           23.2222522801       23.4019373271       49.0371830620  MEMB      15              0.0000000000
      2046        21  POPC      H17R           22.9063959657       23.7710576920       50.0407325806  MEMB      15              0.0000000000
      2047        21  POPC      H17S           23.1700781534       24.2670944776       48.3365049085  MEMB      15              0.0000000000
      2048        21  POPC      C218           24.6731551676       22.9172376819       49.1349426714  MEMB      15              0.0000000000
      2049        21  POPC      H18R           24.7727270618       22.1216814701       49.9045687920  MEMB      15              0.0000000000
      2050        21  POPC      H18S           25.3424446220       23.7563104668       49.4221544299  MEMB      15              0.0000000000
      2051        21  POPC      H18T           25.0270273430       22.5084892576       48.1662429347  MEMB      15              0.0000000000
      2052        21  POPC      C33            17.1321212368       22.6422698354       60.3018995537  MEMB      15              0.0000000000
      2053        21  POPC      H3X            17.0797434061       22.4088513318       59.2190512437  MEMB      15              0.0000000000
      2054        21  POPC      H3Y            18.0203638256       22.1277048620       60.7334342450  MEMB      15              0.0000000000
      2055        21  POPC      C34            17.3520396101       24.1336171982       60.5001057276  MEMB      15              0.0000000000
      2056        21  POPC      H4X            17.5288036755       24.3338028836       61.5748094459  MEMB      15              0.0000000000
      2057        21  POPC      H4Y            16.4060205290       24.6644158636       60.2398034992  MEMB      15              0.0000000000
      2058        21  POPC      C35            18.4917119011       24.7229907967       59.6330149986  MEMB      15              0.0000000000
      2059        21  POPC      H5X            19.0679108473       25.4610506264       60.2282787356  MEMB      15              0.0000000000
      2060        21  POPC      H5Y            17.9471031540       25.2927641015       58.8442985286  MEMB      15              0.0000000000
      2061        21  POPC      C36            19.4672642182       23.7673085325       58.9006005307  MEMB      15              0.0000000000
      2062        21  POPC      H6X            18.9480110671       22.8347262859       58.6008847334  MEMB      15              0.0000000000
      2063        21  POPC      H6Y            20.3161307273       23.4949781233       59.5604107521  MEMB      15              0.0000000000
      2064        21  POPC      C37            19.9751527620       24.3332653329       57.5607765645  MEMB      15              0.0000000000
      2065        21  POPC      H7X            20.7602717962       25.1002254129       57.7230566062  MEMB      15              0.0000000000
      2066        21  POPC      H7Y            19.0955469255       24.8194958192       57.0783000038  MEMB      15              0.0000000000
      2067        21  POPC      C38            20.4629129150       23.2822460683       56.5505747871  MEMB      15              0.0000000000
      2068        21  POPC      H8X            19.6391589149       22.5456868751       56.4303034503  MEMB      15              0.0000000000
      2069        21  POPC      H8Y            21.3519376582       22.7446425802       56.9432266559  MEMB      15              0.0000000000
      2070        21  POPC      C39            20.7742833024       23.8817990278       55.1607375143  MEMB      15              0.0000000000
      2071        21  POPC      H9X            21.8735674887       23.8863844547       54.9948589361  MEMB      15              0.0000000000
      2072        21  POPC      H9Y            20.4379595917       24.9418148185       55.1368409086  MEMB      15              0.0000000000
      2073        21  POPC      C310           20.0674537080       23.1443260981       54.0101648415  MEMB      15              0.0000000000
      2074        21  POPC      H10X           18.9756907861       23.0948000447       54.2305738638  MEMB      15              0.0000000000
      2075        21  POPC      H10Y           20.4441099015       22.0977639026       53.9725538405  MEMB      15              0.0000000000
      2076        21  POPC      C311           20.2480227650       23.7967030721       52.6223403008  MEMB      15              0.0000000000
      2077        21  POPC      H11X           21.3270360275       23.9876511556       52.4272992963  MEMB      15              0.0000000000
      2078        21  POPC      H11Y           19.7249472333       24.7779792742       52.6197696498  MEMB      15              0.0000000000
      2079        21  POPC      C312           19.6882185744       22.9024721242       51.4997556243  MEMB      15              0.0000000000
      2080        21  POPC      H12X           19.0010577011       22.1677231076       51.9773214565  MEMB      15              0.0000000000
      2081        21  POPC      H12Y           20.5176947906       22.3233819163       51.0449385882  MEMB      15              0.0000000000
      2082        21  POPC      C313           18.9020687421       23.6106443314       50.3788237182  MEMB      15              0.0000000000
      2083        21  POPC      H13X           19.6015334285       24.0998952818       49.6705284276  MEMB      15              0.0000000000
      2084        21  POPC      H13Y           18.2806991127       24.4119967155       50.8365658147  MEMB      15              0.0000000000
      2085        21  POPC      C314           17.9631486403       22.6307619911       49.6398393500  MEMB      15              0.0000000000
      2086        21  POPC      H14X           16.9090485285       22.9495413536       49.7833885298  MEMB      15              0.0000000000
      2087        21  POPC      H14Y           18.0553294494       21.6237390654       50.1076687281  MEMB      15              0.0000000000
      2088        21  POPC      C315           18.1723221584       22.4724883891       48.1304237451  MEMB      15              0.0000000000
      2089        21  POPC      H15X           19.2272545181       22.1911577163       47.9224679446  MEMB      15              0.0000000000
      2090        21  POPC      H15Y           17.9775950503       23.4455776317       47.6267893510  MEMB      15              0.0000000000
      2091        21  POPC      C316           17.2391223690       21.3967354392       47.5622491193  MEMB      15              0.0000000000
      2092        21  POPC      H16X           16.1776018959       21.7193220536       47.6370921156  MEMB      15              0.0000000000
      2093        21  POPC      H16Y           17.3523874586       20.4489220328       48.1324970949  MEMB      15              0.0000000000
      2094        21  POPC      H16Z           17.4750739546       21.1852224885       46.5027326569  MEMB      15              0.0000000000
      2095        22  POPC      N              22.8830677137       45.0000516103       64.7143303449  MEMB      16              0.0000000000
      2096        22  POPC      C12            21.9897088011       45.7898255939       63.7714329136  MEMB      16              0.0000000000
      2097        22  POPC      H12A           21.4399790393       45.1114205209       63.1255347238  MEMB      16              0.0000000000
      2098        22  POPC      H12B           22.6269796723       46.3753914126       63.1021522266  MEMB      16              0.0000000000
      2099        22  POPC      C13            23.3129836039       43.7236277729       64.0671439899  MEMB      16              0.0000000000
      2100        22  POPC      H13A           23.8947403954       43.9220712509       63.1686836018  MEMB      16              0.0000000000
      2101        22  POPC      H13B           23.9575025857       43.1543680240       64.7300077111  MEMB      16              0.0000000000
      2102        22  POPC      H13C           22.4760624491       43.0810103733       63.8144799717  MEMB      16              0.0000000000
      2103        22  POPC      C14            24.1335269132       45.7727492134       65.0009347035  MEMB      16              0.0000000000
      2104        22  POPC      H14A           23.9418601317       46.5611469149       65.7243791141  MEMB      16              0.0000000000
      2105        22  POPC      H14B           24.9290416281       45.1330710427       65.3412440284  MEMB      16              0.0000000000
      2106        22  POPC      H14C           24.4922626482       46.2696528699       64.0950435935  MEMB      16              0.0000000000
      2107        22  POPC      C15            22.1546361223       44.7592564292       65.9980065381  MEMB      16              0.0000000000
      2108        22  POPC      H15A           21.2766908502       44.1651037579       65.8076012025  MEMB      16              0.0000000000
      2109        22  POPC      H15B           21.8135757431       45.7204335637       66.3988207904  MEMB      16              0.0000000000
      2110        22  POPC      H15C           22.7925129444       44.2955139426       66.7304202009  MEMB      16              0.0000000000
      2111        22  POPC      C11            21.0023255783       46.7857016566       64.4312865070  MEMB      16              0.0000000000
      2112        22  POPC      H11A           20.2415149172       46.2285141389       65.0206054885  MEMB      16              0.0000000000
      2113        22  POPC      H11B           20.4183267482       47.3406297162       63.6649080445  MEMB      16              0.0000000000
      2114        22  POPC      P              22.5351738321       48.8708692276       64.6620325010  MEMB      16              0.0000000000
      2115        22  POPC      O13            23.2865550127       49.4569717733       65.7934799082  MEMB      16              0.0000000000
      2116        22  POPC      O14            21.6132322387       49.7807532138       63.9648843656  MEMB      16              0.0000000000
      2117        22  POPC      O12            21.6852901827       47.6897423447       65.2880670863  MEMB      16              0.0000000000
      2118        22  POPC      O11            23.5175589143       48.1887750189       63.6253258002  MEMB      16              0.0000000000
      2119        22  POPC      C1             23.7883143164       48.8706354565       62.4012627595  MEMB      16              0.0000000000
      2120        22  POPC      HA             24.8676283409       49.1198122589       62.3787010092  MEMB      16              0.0000000000
      2121        22  POPC      HB             23.2235097952       49.8265793039       62.2806504546  MEMB      16              0.0000000000
      2122        22  POPC      C2             23.4267218775       48.0331652575       61.1519347963  MEMB      16              0.0000000000
      2123        22  POPC      HS             23.4279260892       48.7089268581       60.2614907934  MEMB      16              0.0000000000
      2124        22  POPC      O21            22.1768605945       47.3528381933       61.2899641470  MEMB      16              0.0000000000
      2125        22  POPC      C21            21.1083664089       48.0833460815       61.1509898700  MEMB      16              0.0000000000
      2126        22  POPC      O22            21.0479451315       49.2976072788       61.0978009035  MEMB      16              0.0000000000
      2127        22  POPC      C22            19.9594908242       47.1090092557       60.8772298503  MEMB      16              0.0000000000
      2128        22  POPC      H2R            19.7958433986       46.5072432048       61.7927195190  MEMB      16              0.0000000000
      2129        22  POPC      H2S            20.2817804627       46.4174117373       60.0718031908  MEMB      16              0.0000000000
      2130        22  POPC      C3             24.4765930306       46.9409254127       60.8988837326  MEMB      16              0.0000000000
      2131        22  POPC      HX             24.4686010930       46.2523613645       61.7744209241  MEMB      16              0.0000000000
      2132        22  POPC      HY             25.4777666933       47.4189848984       60.8517570311  MEMB      16              0.0000000000
      2133        22  POPC      O31            24.2200013205       46.2711636145       59.6515482938  MEMB      16              0.0000000000
      2134        22  POPC      C31            23.3890404156       45.2426419720       59.7064909801  MEMB      16              0.0000000000
      2135        22  POPC      O32            22.9302335495       44.7452665123       60.7236181757  MEMB      16              0.0000000000
      2136        22  POPC      C32            23.0778791940       44.7109393003       58.2910277642  MEMB      16              0.0000000000
      2137        22  POPC      H2X            21.9769223820       44.6660260186       58.1835840820  MEMB      16              0.0000000000
      2138        22  POPC      H2Y            23.4621194710       43.6719078797       58.2670485251  MEMB      16              0.0000000000
      2139        22  POPC      C23            18.6375112317       47.7918575078       60.4666500356  MEMB      16              0.0000000000
      2140        22  POPC      H3R            18.4233148708       48.6615449880       61.1251395516  MEMB      16              0.0000000000
      2141        22  POPC      H3S            17.8420813638       47.0337074004       60.6412238474  MEMB      16              0.0000000000
      2142        22  POPC      C24            18.5803630816       48.2123469898       58.9858312693  MEMB      16              0.0000000000
      2143        22  POPC      H4R            17.5650927022       48.6142695209       58.7657748307  MEMB      16              0.0000000000
      2144        22  POPC      H4S            18.7368974912       47.3229327021       58.3335700970  MEMB      16              0.0000000000
      2145        22  POPC      C25            19.6230802646       49.2797581247       58.6195610107  MEMB      16              0.0000000000
      2146        22  POPC      H5R            20.6477857111       48.8467867917       58.6872442448  MEMB      16              0.0000000000
      2147        22  POPC      H5S            19.5535711515       50.1151780557       59.3554981187  MEMB      16              0.0000000000
      2148        22  POPC      C26            19.4863619081       49.8727934238       57.2240614276  MEMB      16              0.0000000000
      2149        22  POPC      H6R            18.4923226214       50.3605814548       57.1493725720  MEMB      16              0.0000000000
      2150        22  POPC      H6S            19.5423362494       49.0612895134       56.4651540480  MEMB      16              0.0000000000
      2151        22  POPC      C27            20.5895068437       50.9061945389       56.9507630195  MEMB      16              0.0000000000
      2152        22  POPC      H7R            21.5806088992       50.4145936164       57.0781627296  MEMB      16              0.0000000000
      2153        22  POPC      H7S            20.5112784701       51.7107011172       57.7189449194  MEMB      16              0.0000000000
      2154        22  POPC      C28            20.4770130430       51.5230345964       55.5494237628  MEMB      16              0.0000000000
      2155        22  POPC      H8R            19.4607095593       51.9653217460       55.4712843516  MEMB      16              0.0000000000
      2156        22  POPC      H8S            20.5414840557       50.7062551632       54.7953598972  MEMB      16              0.0000000000
      2157        22  POPC      C29            21.5215935479       52.5840759811       55.3100023612  MEMB      16              0.0000000000
      2158        22  POPC      H91            21.9286621230       53.0666412724       56.2159341390  MEMB      16              0.0000000000
      2159        22  POPC      C210           21.9752401569       52.9700951333       54.1037227027  MEMB      16              0.0000000000
      2160        22  POPC      H101           22.7497191970       53.7462054488       54.0503006912  MEMB      16              0.0000000000
      2161        22  POPC      C211           21.5328916267       52.4267204881       52.7681770412  MEMB      16              0.0000000000
      2162        22  POPC      H11R           21.5098147912       53.2396443531       52.0088512873  MEMB      16              0.0000000000
      2163        22  POPC      H11S           20.5101382657       52.0030633525       52.8232842477  MEMB      16              0.0000000000
      2164        22  POPC      C212           22.4483471596       51.2949775989       52.2944171274  MEMB      16              0.0000000000
      2165        22  POPC      H12R           22.4058213924       50.4780396899       53.0528911424  MEMB      16              0.0000000000
      2166        22  POPC      H12S           23.5002541864       51.6580108753       52.2381668102  MEMB      16              0.0000000000
      2167        22  POPC      C213           22.0591146956       50.7032188836       50.9316555328  MEMB      16              0.0000000000
      2168        22  POPC      H13R           20.9800076319       50.4387181046       50.9080727790  MEMB      16              0.0000000000
      2169        22  POPC      H13S           22.6287097215       49.7540360377       50.7988221908  MEMB      16              0.0000000000
      2170        22  POPC      C214           22.4133571266       51.6246101595       49.7573292076  MEMB      16              0.0000000000
      2171        22  POPC      H14R           23.4094179544       52.0875610758       49.9519315753  MEMB      16              0.0000000000
      2172        22  POPC      H14S           21.6697301650       52.4475726892       49.6765961410  MEMB      16              0.0000000000
      2173        22  POPC      C215           22.5051976095       50.8563895511       48.4342660037  MEMB      16              0.0000000000
      2174        22  POPC      H15R           21.5396102264       50.3474008585       48.2248588316  MEMB      16              0.0000000000
      2175        22  POPC      H15S           23.2845201212       50.0720822065       48.5479611440  MEMB      16              0.0000000000
      2176        22  POPC      C216           22.8961945345       51.7574280860       47.2578324426  MEMB      16              0.0000000000
      2177        22  POPC      H16R           23.7600204472       52.3814323697       47.5684221160  MEMB      16              0.0000000000
      2178        22  POPC      H16S           22.0492121679       52.4396857755       47.0220360428  MEMB      16              0.0000000000
      2179        22  POPC      C217           23.3111725878       50.9843449661       45.9996557598  MEMB      16              0.0000000000
      2180        22  POPC      H17R           24.2774840728       50.4660178600       46.1967100268  MEMB      16              0.0000000000
      2181        22  POPC      H17S           23.4959299962       51.7167568919       45.1802704976  MEMB      16              0.0000000000
      2182        22  POPC      C218           22.2796849038       49.9562948350       45.5367506483  MEMB      16              0.0000000000
      2183        22  POPC      H18R           22.5729320412       49.5533338164       44.5436527178  MEMB      16              0.0000000000
      2184        22  POPC      H18S           21.2762535909       50.4240923613       45.4492616602  MEMB      16              0.0000000000
      2185        22  POPC      H18T           22.2058307615       49.1099202894       46.2533141726  MEMB      16              0.0000000000
      2186        22  POPC      C33            23.7034303789       45.4712615172       57.0848970010  MEMB      16              0.0000000000
      2187        22  POPC      H3X            23.7451412577       44.7716481853       56.2179242426  MEMB      16              0.0000000000
      2188        22  POPC      H3Y            24.7556316415       45.7505420644       57.3182023831  MEMB      16              0.0000000000
      2189        22  POPC      C34            22.9081788637       46.7101452882       56.6367240772  MEMB      16              0.0000000000
      2190        22  POPC      H4X            23.5326401539       47.3297685990       55.9533697312  MEMB      16              0.0000000000
      2191        22  POPC      H4Y            22.6909699684       47.3274144907       57.5382022369  MEMB      16              0.0000000000
      2192        22  POPC      C35            21.5821699840       46.3981555351       55.9184465447  MEMB      16              0.0000000000
      2193        22  POPC      H5X            20.9387459009       47.3065457607       55.9766031898  MEMB      16              0.0000000000
      2194        22  POPC      H5Y            21.0438607145       45.5818428119       56.4454914209  MEMB      16              0.0000000000
      2195        22  POPC      C36            21.7397496363       46.0405380910       54.4308799279  MEMB      16              0.0000000000
      2196        22  POPC      H6X            22.4644838442       45.2047435762       54.3134854021  MEMB      16              0.0000000000
      2197        22  POPC      H6Y            22.1447030513       46.9247016826       53.8883532429  MEMB      16              0.0000000000
      2198        22  POPC      C37            20.3988010732       45.6302766936       53.8054304523  MEMB      16              0.0000000000
      2199        22  POPC      H7X            19.6490280647       46.4350691460       53.9651439093  MEMB      16              0.0000000000
      2200        22  POPC      H7Y            20.0302290840       44.7296150451       54.3489992232  MEMB      16              0.0000000000
      2201        22  POPC      C38            20.4713847828       45.2852702179       52.3094606052  MEMB      16              0.0000000000
      2202        22  POPC      H8X            19.5219105249       44.7778164116       52.0293476355  MEMB      16              0.0000000000
      2203        22  POPC      H8Y            21.2926987976       44.5604244565       52.1247572688  MEMB      16              0.0000000000
      2204        22  POPC      C39            20.6106757321       46.5002400138       51.3824547702  MEMB      16              0.0000000000
      2205        22  POPC      H9X            21.6560871087       46.8766848051       51.4179508907  MEMB      16              0.0000000000
      2206        22  POPC      H9Y            19.9565749021       47.3181679838       51.7577530463  MEMB      16              0.0000000000
      2207        22  POPC      C310           20.1996147588       46.1858606717       49.9306936967  MEMB      16              0.0000000000
      2208        22  POPC      H10X           20.3566533270       47.1005863821       49.3157830970  MEMB      16              0.0000000000
      2209        22  POPC      H10Y           19.1121460996       45.9459808310       49.9074205801  MEMB      16              0.0000000000
      2210        22  POPC      C311           20.9610476109       45.0133881149       49.2858125638  MEMB      16              0.0000000000
      2211        22  POPC      H11X           20.6126425206       44.9023047275       48.2342171901  MEMB      16              0.0000000000
      2212        22  POPC      H11Y           20.7281993373       44.0632683442       49.8146024142  MEMB      16              0.0000000000
      2213        22  POPC      C312           22.4742195522       45.2415767442       49.2961433051  MEMB      16              0.0000000000
      2214        22  POPC      H12X           22.8359345735       45.2885395537       50.3480812011  MEMB      16              0.0000000000
      2215        22  POPC      H12Y           22.6456783050       46.2358395115       48.8341795525  MEMB      16              0.0000000000
      2216        22  POPC      C313           23.3118595968       44.1930623020       48.5496681286  MEMB      16              0.0000000000
      2217        22  POPC      H13X           23.0653427779       43.1729168481       48.9147662381  MEMB      16              0.0000000000
      2218        22  POPC      H13Y           24.3825255760       44.3851102271       48.7937146108  MEMB      16              0.0000000000
      2219        22  POPC      C314           23.1580221802       44.2573645835       47.0243601503  MEMB      16              0.0000000000
      2220        22  POPC      H14X           23.0304839167       45.3209733069       46.7160175360  MEMB      16              0.0000000000
      2221        22  POPC      H14Y           22.2311367285       43.7148118897       46.7369287699  MEMB      16              0.0000000000
      2222        22  POPC      C315           24.3634368893       43.6928855996       46.2519171018  MEMB      16              0.0000000000
      2223        22  POPC      H15X           25.1777556635       44.4536698654       46.2656342155  MEMB      16              0.0000000000
      2224        22  POPC      H15Y           24.0619640775       43.5540557473       45.1879919648  MEMB      16              0.0000000000
      2225        22  POPC      C316           24.9292723444       42.3795424611       46.8004238173  MEMB      16              0.0000000000
      2226        22  POPC      H16X           25.4341774098       42.5488534453       47.7760786218  MEMB      16              0.0000000000
      2227        22  POPC      H16Y           25.6759333734       41.9517549593       46.0972653179  MEMB      16              0.0000000000
      2228        22  POPC      H16Z           24.1200437100       41.6360259246       46.9526359501  MEMB      16              0.0000000000
      2229        23  POPC      N              17.0756623110       38.8195453825       66.6506855877  MEMB      17              0.0000000000
      2230        23  POPC      C12            18.3189532889       39.1665893602       65.8644162297  MEMB      17              0.0000000000
      2231        23  POPC      H12A           18.5493572975       38.3258556710       65.2293478586  MEMB      17              0.0000000000
      2232        23  POPC      H12B           19.1535952437       39.2881774408       66.5467235579  MEMB      17              0.0000000000
      2233        23  POPC      C13            16.5011868370       40.0758570411       67.2308598635  MEMB      17              0.0000000000
      2234        23  POPC      H13A           17.1751041232       40.5342954136       67.9458894826  MEMB      17              0.0000000000
      2235        23  POPC      H13B           16.3301768719       40.7997761449       66.4304825198  MEMB      17              0.0000000000
      2236        23  POPC      H13C           15.5558599615       39.8928499839       67.7204387893  MEMB      17              0.0000000000
      2237        23  POPC      C14            16.0528856597       38.2112201698       65.7461396366  MEMB      17              0.0000000000
      2238        23  POPC      H14A           16.2630244256       37.1693727091       65.5513894345  MEMB      17              0.0000000000
      2239        23  POPC      H14B           15.0714573717       38.2454267471       66.2017172640  MEMB      17              0.0000000000
      2240        23  POPC      H14C           16.0269014840       38.7892475521       64.8196751422  MEMB      17              0.0000000000
      2241        23  POPC      C15            17.3868443012       37.8669038606       67.7422164634  MEMB      17              0.0000000000
      2242        23  POPC      H15A           16.4565291497       37.4985345868       68.1695135815  MEMB      17              0.0000000000
      2243        23  POPC      H15B           17.9819282276       38.3386726628       68.5206884477  MEMB      17              0.0000000000
      2244        23  POPC      H15C           17.9141336169       36.9929453451       67.3915581592  MEMB      17              0.0000000000
      2245        23  POPC      C11            18.1970271433       40.4114689735       64.9559818873  MEMB      17              0.0000000000
      2246        23  POPC      H11A           19.1207648683       40.4893774856       64.3341950776  MEMB      17              0.0000000000
      2247        23  POPC      H11B           18.1507836829       41.3340576582       65.5803622977  MEMB      17              0.0000000000
      2248        23  POPC      P              16.7427725999       41.3787984253       63.0370938610  MEMB      17              0.0000000000
      2249        23  POPC      O13            17.0462524531       42.6853503761       63.6536894144  MEMB      17              0.0000000000
      2250        23  POPC      O14            15.3629299399       41.1618771466       62.5605633939  MEMB      17              0.0000000000
      2251        23  POPC      O12            17.0257811477       40.2914525282       64.1404330546  MEMB      17              0.0000000000
      2252        23  POPC      O11            17.8216452333       40.9604547854       61.9319968608  MEMB      17              0.0000000000
      2253        23  POPC      C1             18.0145454901       39.5398236919       61.7539684113  MEMB      17              0.0000000000
      2254        23  POPC      HA             17.0546115346       39.0448024358       61.4730986769  MEMB      17              0.0000000000
      2255        23  POPC      HB             18.3851128379       39.0707972596       62.6934544955  MEMB      17              0.0000000000
      2256        23  POPC      C2             19.0926515724       39.1356415031       60.7012801355  MEMB      17              0.0000000000
      2257        23  POPC      HS             19.3253118017       38.0607498450       60.8812533828  MEMB      17              0.0000000000
      2258        23  POPC      O21            20.2815819082       39.9390445058       60.8484339087  MEMB      17              0.0000000000
      2259        23  POPC      C21            21.2673479340       39.5804066306       60.0407184127  MEMB      17              0.0000000000
      2260        23  POPC      O22            21.3942571246       38.4784000128       59.5291849831  MEMB      17              0.0000000000
      2261        23  POPC      C22            22.1882397745       40.7669545239       59.8258173824  MEMB      17              0.0000000000
      2262        23  POPC      H2R            23.1295510832       40.5463136959       60.3644785609  MEMB      17              0.0000000000
      2263        23  POPC      H2S            21.7350619229       41.6879241185       60.2488402957  MEMB      17              0.0000000000
      2264        23  POPC      C3             18.5236242095       39.2523288766       59.2562476570  MEMB      17              0.0000000000
      2265        23  POPC      HX             17.5414941816       38.7319625567       59.2867813184  MEMB      17              0.0000000000
      2266        23  POPC      HY             19.1636914593       38.6847828291       58.5466865809  MEMB      17              0.0000000000
      2267        23  POPC      O31            18.4430504372       40.6224008706       58.8180319771  MEMB      17              0.0000000000
      2268        23  POPC      C31            17.2905735052       40.9990160910       58.2992690442  MEMB      17              0.0000000000
      2269        23  POPC      O32            16.2896278400       40.3131792216       58.1946872009  MEMB      17              0.0000000000
      2270        23  POPC      C32            17.4626828356       42.3883425909       57.6750389551  MEMB      17              0.0000000000
      2271        23  POPC      H2X            18.5276722754       42.4902226567       57.3775772612  MEMB      17              0.0000000000
      2272        23  POPC      H2Y            17.2364782638       43.1540049658       58.4424002572  MEMB      17              0.0000000000
      2273        23  POPC      C23            22.4475588552       40.9367590931       58.3193258124  MEMB      17              0.0000000000
      2274        23  POPC      H3R            22.6978551617       39.9501570420       57.8733318668  MEMB      17              0.0000000000
      2275        23  POPC      H3S            23.3265836580       41.5980490577       58.1803151409  MEMB      17              0.0000000000
      2276        23  POPC      C24            21.2542658163       41.5406857919       57.5670705905  MEMB      17              0.0000000000
      2277        23  POPC      H4R            20.9329042852       42.4559776544       58.1146936965  MEMB      17              0.0000000000
      2278        23  POPC      H4S            20.4033832706       40.8284027208       57.5760313009  MEMB      17              0.0000000000
      2279        23  POPC      C25            21.5745038146       41.9125851497       56.1134505746  MEMB      17              0.0000000000
      2280        23  POPC      H5R            22.6718481212       42.0566778424       56.0109751928  MEMB      17              0.0000000000
      2281        23  POPC      H5S            21.0911532930       42.8878217716       55.8767462269  MEMB      17              0.0000000000
      2282        23  POPC      C26            21.0926166484       40.8873774417       55.0676966345  MEMB      17              0.0000000000
      2283        23  POPC      H6R            21.5021264294       41.2203835641       54.0890708283  MEMB      17              0.0000000000
      2284        23  POPC      H6S            19.9829285454       40.9063300460       54.9953584047  MEMB      17              0.0000000000
      2285        23  POPC      C27            21.5494868988       39.4426298693       55.3285714769  MEMB      17              0.0000000000
      2286        23  POPC      H7R            20.8705475779       38.9441349404       56.0535736143  MEMB      17              0.0000000000
      2287        23  POPC      H7S            22.5511064636       39.4886200049       55.8035708887  MEMB      17              0.0000000000
      2288        23  POPC      C28            21.7370997804       38.5900588714       54.0570589038  MEMB      17              0.0000000000
      2289        23  POPC      H8R            22.3195292898       37.6863660908       54.3492932752  MEMB      17              0.0000000000
      2290        23  POPC      H8S            22.3885912140       39.1559387059       53.3537644554  MEMB      17              0.0000000000
      2291        23  POPC      C29            20.4587899192       38.1462107234       53.3955176406  MEMB      17              0.0000000000
      2292        23  POPC      H91            19.9528127789       37.3018181938       53.8909717029  MEMB      17              0.0000000000
      2293        23  POPC      C210           19.9195438264       38.6750551781       52.2817269141  MEMB      17              0.0000000000
      2294        23  POPC      H101           18.9991612115       38.2281333304       51.8736855937  MEMB      17              0.0000000000
      2295        23  POPC      C211           20.4862425861       39.8216375635       51.4779746166  MEMB      17              0.0000000000
      2296        23  POPC      H11R           20.9647509341       40.5713266323       52.1451851439  MEMB      17              0.0000000000
      2297        23  POPC      H11S           19.6602929940       40.3624187685       50.9727548416  MEMB      17              0.0000000000
      2298        23  POPC      C212           21.5325137598       39.4175963507       50.4177750685  MEMB      17              0.0000000000
      2299        23  POPC      H12R           22.4133407606       38.9683630269       50.9304692482  MEMB      17              0.0000000000
      2300        23  POPC      H12S           21.8818679561       40.3391780869       49.8992390714  MEMB      17              0.0000000000
      2301        23  POPC      C213           21.0260407598       38.4226025924       49.3608063846  MEMB      17              0.0000000000
      2302        23  POPC      H13R           20.7612185155       37.4759334160       49.8819540116  MEMB      17              0.0000000000
      2303        23  POPC      H13S           21.8542515531       38.1873609463       48.6547173904  MEMB      17              0.0000000000
      2304        23  POPC      C214           19.8166838813       38.9329520192       48.5612927334  MEMB      17              0.0000000000
      2305        23  POPC      H14R           20.0863752120       39.8880116412       48.0578296987  MEMB      17              0.0000000000
      2306        23  POPC      H14S           18.9765599603       39.1470153092       49.2599292355  MEMB      17              0.0000000000
      2307        23  POPC      C215           19.3009436110       37.9339476034       47.5131556195  MEMB      17              0.0000000000
      2308        23  POPC      H15R           20.0691886005       37.7885441175       46.7219292212  MEMB      17              0.0000000000
      2309        23  POPC      H15S           18.3950239176       38.3670221471       47.0307467532  MEMB      17              0.0000000000
      2310        23  POPC      C216           18.9384696470       36.5740335443       48.1216210955  MEMB      17              0.0000000000
      2311        23  POPC      H16R           18.3211760469       36.7390021099       49.0299555832  MEMB      17              0.0000000000
      2312        23  POPC      H16S           19.8580270821       36.0533755422       48.4603819643  MEMB      17              0.0000000000
      2313        23  POPC      C217           18.1934934099       35.6586841553       47.1502399966  MEMB      17              0.0000000000
      2314        23  POPC      H17R           18.8118808172       35.5121397558       46.2349067376  MEMB      17              0.0000000000
      2315        23  POPC      H17S           17.2423624700       36.1481074702       46.8382606345  MEMB      17              0.0000000000
      2316        23  POPC      C218           17.8847922076       34.2984156103       47.7691826180  MEMB      17              0.0000000000
      2317        23  POPC      H18R           17.2844533235       33.6913382439       47.0651804734  MEMB      17              0.0000000000
      2318        23  POPC      H18S           17.2993670123       34.4117622938       48.7062717776  MEMB      17              0.0000000000
      2319        23  POPC      H18T           18.8234001874       33.7523197666       48.0067006423  MEMB      17              0.0000000000
      2320        23  POPC      C33            16.5597017836       42.5647308510       56.4277867428  MEMB      17              0.0000000000
      2321        23  POPC      H3X            15.5936196655       43.0297980807       56.7258139958  MEMB      17              0.0000000000
      2322        23  POPC      H3Y            16.3141644175       41.5675767520       55.9874745876  MEMB      17              0.0000000000
      2323        23  POPC      C34            17.2197500163       43.3644110258       55.2978160892  MEMB      17              0.0000000000
      2324        23  POPC      H4X            18.1977661677       42.8906310233       55.0496019170  MEMB      17              0.0000000000
      2325        23  POPC      H4Y            17.4163798436       44.4086086772       55.6234647709  MEMB      17              0.0000000000
      2326        23  POPC      C35            16.3454051780       43.3655776704       54.0365053609  MEMB      17              0.0000000000
      2327        23  POPC      H5X            15.4205301492       43.9519468462       54.2310604533  MEMB      17              0.0000000000
      2328        23  POPC      H5Y            16.0439420281       42.3163111516       53.8185583624  MEMB      17              0.0000000000
      2329        23  POPC      C36            17.0608974176       43.9404055724       52.8100136951  MEMB      17              0.0000000000
      2330        23  POPC      H6X            18.0111108630       43.3843234099       52.6556992232  MEMB      17              0.0000000000
      2331        23  POPC      H6Y            17.3255818425       45.0000946315       53.0228325061  MEMB      17              0.0000000000
      2332        23  POPC      C37            16.2160102452       43.8922895801       51.5250369352  MEMB      17              0.0000000000
      2333        23  POPC      H7X            16.7196851677       44.4991486549       50.7401180901  MEMB      17              0.0000000000
      2334        23  POPC      H7Y            15.2403939081       44.3874842474       51.7246392796  MEMB      17              0.0000000000
      2335        23  POPC      C38            15.9716530421       42.4723943488       50.9785949933  MEMB      17              0.0000000000
      2336        23  POPC      H8X            15.2781069886       42.5346128161       50.1110579301  MEMB      17              0.0000000000
      2337        23  POPC      H8Y            15.4635832284       41.8532990714       51.7496683786  MEMB      17              0.0000000000
      2338        23  POPC      C39            17.2457646580       41.7335408590       50.5406439429  MEMB      17              0.0000000000
      2339        23  POPC      H9X            16.9644685448       40.7153876526       50.1856865926  MEMB      17              0.0000000000
      2340        23  POPC      H9Y            17.9044652257       41.6013918237       51.4271890913  MEMB      17              0.0000000000
      2341        23  POPC      C310           18.0371189358       42.4382089217       49.4272442397  MEMB      17              0.0000000000
      2342        23  POPC      H10X           18.9648293891       41.8519428177       49.2357170367  MEMB      17              0.0000000000
      2343        23  POPC      H10Y           18.3541833160       43.4496837691       49.7601810188  MEMB      17              0.0000000000
      2344        23  POPC      C311           17.2545199069       42.5423929639       48.1115864296  MEMB      17              0.0000000000
      2345        23  POPC      H11X           16.3268176875       43.1392928370       48.2533859552  MEMB      17              0.0000000000
      2346        23  POPC      H11Y           16.9450084951       41.5111788128       47.8303879513  MEMB      17              0.0000000000
      2347        23  POPC      C312           18.0777094141       43.1701469250       46.9777889900  MEMB      17              0.0000000000
      2348        23  POPC      H12X           19.1453639655       42.8689156402       47.0856365992  MEMB      17              0.0000000000
      2349        23  POPC      H12Y           18.0377198380       44.2780542067       47.0732891673  MEMB      17              0.0000000000
      2350        23  POPC      C313           17.6007683955       42.7411981147       45.5818627489  MEMB      17              0.0000000000
      2351        23  POPC      H13X           18.1135629005       43.3705486633       44.8212625368  MEMB      17              0.0000000000
      2352        23  POPC      H13Y           16.5086515661       42.9186788038       45.4710864960  MEMB      17              0.0000000000
      2353        23  POPC      C314           17.9267355247       41.2669714827       45.3040789686  MEMB      17              0.0000000000
      2354        23  POPC      H14X           17.2647887822       40.6110570582       45.9110249595  MEMB      17              0.0000000000
      2355        23  POPC      H14Y           18.9746734559       41.0655033023       45.6223406150  MEMB      17              0.0000000000
      2356        23  POPC      C315           17.7961784573       40.8704266470       43.8339563485  MEMB      17              0.0000000000
      2357        23  POPC      H15X           18.4767811949       41.5085762013       43.2277556262  MEMB      17              0.0000000000
      2358        23  POPC      H15Y           16.7609707416       41.0756083389       43.4877221367  MEMB      17              0.0000000000
      2359        23  POPC      C316           18.1421813989       39.3972244009       43.6014364140  MEMB      17              0.0000000000
      2360        23  POPC      H16X           19.1928182840       39.1985699333       43.9032534536  MEMB      17              0.0000000000
      2361        23  POPC      H16Y           18.0264543277       39.1326843905       42.5296213596  MEMB      17              0.0000000000
      2362        23  POPC      H16Z           17.4743103649       38.7409637490       44.1997036690  MEMB      17              0.0000000000
      2363        24  POPC      N              28.1046065833       52.2017716371       66.4691443108  MEMB      18              0.0000000000
      2364        24  POPC      C12            29.0468400285       53.2435090746       65.8470265156  MEMB      18              0.0000000000
      2365        24  POPC      H12A           29.9375606790       53.3380741587       66.4497415788  MEMB      18              0.0000000000
      2366        24  POPC      H12B           28.5587683491       54.2190092415       65.8330209564  MEMB      18              0.0000000000
      2367        24  POPC      C13            26.7339873539       52.3278625546       65.8806862854  MEMB      18              0.0000000000
      2368        24  POPC      H13A           26.8021389471       52.3677597704       64.7964705018  MEMB      18              0.0000000000
      2369        24  POPC      H13B           26.0881795897       51.5065783858       66.1740646037  MEMB      18              0.0000000000
      2370        24  POPC      H13C           26.2890475528       53.2605597177       66.2092819300  MEMB      18              0.0000000000
      2371        24  POPC      C14            28.6432265191       50.8237375872       66.2110367547  MEMB      18              0.0000000000
      2372        24  POPC      H14A           29.6594216144       50.7325170312       66.6095620848  MEMB      18              0.0000000000
      2373        24  POPC      H14B           28.0548908454       50.0515738302       66.6980316656  MEMB      18              0.0000000000
      2374        24  POPC      H14C           28.6859073183       50.6187274989       65.1464219040  MEMB      18              0.0000000000
      2375        24  POPC      C15            27.9399252521       52.3602122152       67.9499403233  MEMB      18              0.0000000000
      2376        24  POPC      H15A           27.5139257443       53.3214385114       68.2297617041  MEMB      18              0.0000000000
      2377        24  POPC      H15B           28.8814806380       52.2055353555       68.4595137560  MEMB      18              0.0000000000
      2378        24  POPC      H15C           27.2603790247       51.5872469973       68.3062614416  MEMB      18              0.0000000000
      2379        24  POPC      C11            29.5623838310       53.0086178033       64.3932089810  MEMB      18              0.0000000000
      2380        24  POPC      H11A           30.1471227306       52.0632666349       64.3452753925  MEMB      18              0.0000000000
      2381        24  POPC      H11B           30.3036859403       53.8077802117       64.1373117943  MEMB      18              0.0000000000
      2382        24  POPC      P              27.8173106671       54.3112496704       62.9692665628  MEMB      18              0.0000000000
      2383        24  POPC      O13            28.6466621932       55.0467336076       61.9948561742  MEMB      18              0.0000000000
      2384        24  POPC      O14            27.3822329372       55.0071065189       64.2197971667  MEMB      18              0.0000000000
      2385        24  POPC      O12            28.5019630762       52.9516532541       63.4383559896  MEMB      18              0.0000000000
      2386        24  POPC      O11            26.5068482706       53.7967808955       62.2221527725  MEMB      18              0.0000000000
      2387        24  POPC      C1             25.8651474201       52.5494525766       62.4453139676  MEMB      18              0.0000000000
      2388        24  POPC      HA             25.2774124819       52.5927862932       63.3879654036  MEMB      18              0.0000000000
      2389        24  POPC      HB             26.6101413188       51.7214205254       62.5213609065  MEMB      18              0.0000000000
      2390        24  POPC      C2             24.8743159555       52.1884252037       61.2927045480  MEMB      18              0.0000000000
      2391        24  POPC      HS             24.3967115263       51.2249145916       61.5510272299  MEMB      18              0.0000000000
      2392        24  POPC      O21            25.5853917884       52.1020911848       60.0465064080  MEMB      18              0.0000000000
      2393        24  POPC      C21            26.2120121627       50.9638828245       59.8640914037  MEMB      18              0.0000000000
      2394        24  POPC      O22            25.9600872969       49.9163225826       60.4428844631  MEMB      18              0.0000000000
      2395        24  POPC      C22            27.3807041185       51.1471658084       58.9000124907  MEMB      18              0.0000000000
      2396        24  POPC      H2R            27.3628405341       50.2912163627       58.1975327127  MEMB      18              0.0000000000
      2397        24  POPC      H2S            28.3096589015       51.0858187263       59.5071003020  MEMB      18              0.0000000000
      2398        24  POPC      C3             23.6879148257       53.1895964205       61.1445659635  MEMB      18              0.0000000000
      2399        24  POPC      HX             23.2525661606       53.2985149360       62.1611866230  MEMB      18              0.0000000000
      2400        24  POPC      HY             22.8952348463       52.7293207297       60.5045765458  MEMB      18              0.0000000000
      2401        24  POPC      O31            24.0859198857       54.4913533687       60.6681967174  MEMB      18              0.0000000000
      2402        24  POPC      C31            24.2517073405       54.5522579108       59.3447292297  MEMB      18              0.0000000000
      2403        24  POPC      O32            23.9233697812       53.6926983287       58.5517069436  MEMB      18              0.0000000000
      2404        24  POPC      C32            24.8059585879       55.9180358362       58.9710823530  MEMB      18              0.0000000000
      2405        24  POPC      H2X            25.9137600420       55.8842758629       59.0373159937  MEMB      18              0.0000000000
      2406        24  POPC      H2Y            24.4365706436       56.6574824412       59.7122414670  MEMB      18              0.0000000000
      2407        24  POPC      C23            27.3868918885       52.4912371255       58.1324698960  MEMB      18              0.0000000000
      2408        24  POPC      H3R            27.2160666979       53.3378563523       58.8415975868  MEMB      18              0.0000000000
      2409        24  POPC      H3S            26.5597511221       52.5011409044       57.3885515795  MEMB      18              0.0000000000
      2410        24  POPC      C24            28.7302335074       52.7574606417       57.4395120782  MEMB      18              0.0000000000
      2411        24  POPC      H4R            29.4953823602       52.9416474013       58.2313166189  MEMB      18              0.0000000000
      2412        24  POPC      H4S            28.6409550484       53.6863636725       56.8343050701  MEMB      18              0.0000000000
      2413        24  POPC      C25            29.2342370752       51.6108135446       56.5479153206  MEMB      18              0.0000000000
      2414        24  POPC      H5R            29.4965242852       50.7300190590       57.1763934701  MEMB      18              0.0000000000
      2415        24  POPC      H5S            30.1767972609       51.9459575467       56.0626039385  MEMB      18              0.0000000000
      2416        24  POPC      C26            28.2553793199       51.1630529747       55.4472009914  MEMB      18              0.0000000000
      2417        24  POPC      H6R            27.8694053564       52.0555463076       54.9105489634  MEMB      18              0.0000000000
      2418        24  POPC      H6S            27.3960017617       50.6326940064       55.9088943587  MEMB      18              0.0000000000
      2419        24  POPC      C27            28.9680347214       50.2509675823       54.4441777439  MEMB      18              0.0000000000
      2420        24  POPC      H7R            29.4737808379       49.4275309563       54.9956009009  MEMB      18              0.0000000000
      2421        24  POPC      H7S            29.7582802651       50.8834528551       53.9863354775  MEMB      18              0.0000000000
      2422        24  POPC      C28            28.1103657221       49.6742348624       53.3048048109  MEMB      18              0.0000000000
      2423        24  POPC      H8R            28.7924953018       49.2208097674       52.5526813735  MEMB      18              0.0000000000
      2424        24  POPC      H8S            27.6044344959       50.5140153221       52.7863959995  MEMB      18              0.0000000000
      2425        24  POPC      C29            27.1514611674       48.6047879390       53.7511282475  MEMB      18              0.0000000000
      2426        24  POPC      H91            27.5593882195       47.8878921754       54.4829906189  MEMB      18              0.0000000000
      2427        24  POPC      C210           25.8807687215       48.4836280814       53.3360206739  MEMB      18              0.0000000000
      2428        24  POPC      H101           25.2703381703       47.6455605172       53.7094116394  MEMB      18              0.0000000000
      2429        24  POPC      C211           25.1912439912       49.3970235926       52.3558163490  MEMB      18              0.0000000000
      2430        24  POPC      H11R           25.4154947287       50.4617497167       52.5923667237  MEMB      18              0.0000000000
      2431        24  POPC      H11S           24.0974264885       49.2672392490       52.4882142667  MEMB      18              0.0000000000
      2432        24  POPC      C212           25.5024511141       49.1684081941       50.8609762715  MEMB      18              0.0000000000
      2433        24  POPC      H12R           26.5892185984       49.2987165100       50.6641402820  MEMB      18              0.0000000000
      2434        24  POPC      H12S           24.9670260178       49.9514931661       50.2772064087  MEMB      18              0.0000000000
      2435        24  POPC      C213           25.0429531077       47.7883206070       50.3818393083  MEMB      18              0.0000000000
      2436        24  POPC      H13R           24.0873123885       47.5313256403       50.8966470666  MEMB      18              0.0000000000
      2437        24  POPC      H13S           25.7895698408       47.0340547610       50.7056547048  MEMB      18              0.0000000000
      2438        24  POPC      C214           24.8001311920       47.6436252017       48.8704216339  MEMB      18              0.0000000000
      2439        24  POPC      H14R           23.7843285433       48.0165789142       48.6169886198  MEMB      18              0.0000000000
      2440        24  POPC      H14S           24.8179315068       46.5522449086       48.6505812516  MEMB      18              0.0000000000
      2441        24  POPC      C215           25.7966673770       48.3005769620       47.9135186274  MEMB      18              0.0000000000
      2442        24  POPC      H15R           26.8251220153       48.1559940472       48.3008942396  MEMB      18              0.0000000000
      2443        24  POPC      H15S           25.6068848915       49.3942097309       47.8535661359  MEMB      18              0.0000000000
      2444        24  POPC      C216           25.6742613130       47.6560903881       46.5213178694  MEMB      18              0.0000000000
      2445        24  POPC      H16R           24.6092359558       47.6810055855       46.1965884869  MEMB      18              0.0000000000
      2446        24  POPC      H16S           25.9647781946       46.5855000786       46.6061209517  MEMB      18              0.0000000000
      2447        24  POPC      C217           26.5312756926       48.3205154918       45.4423889999  MEMB      18              0.0000000000
      2448        24  POPC      H17R           27.5635197347       48.4755001603       45.8272659439  MEMB      18              0.0000000000
      2449        24  POPC      H17S           26.0962006355       49.3230461898       45.2387992669  MEMB      18              0.0000000000
      2450        24  POPC      C218           26.5949053159       47.5184564265       44.1386997917  MEMB      18              0.0000000000
      2451        24  POPC      H18R           27.2112712712       48.0470788720       43.3805100355  MEMB      18              0.0000000000
      2452        24  POPC      H18S           25.5757290101       47.3771633249       43.7204445093  MEMB      18              0.0000000000
      2453        24  POPC      H18T           27.0444846736       46.5168823177       44.3150245555  MEMB      18              0.0000000000
      2454        24  POPC      C33            24.3438539542       56.3180601298       57.5527329701  MEMB      18              0.0000000000
      2455        24  POPC      H3X            24.4089581781       57.4233672618       57.4628659996  MEMB      18              0.0000000000
      2456        24  POPC      H3Y            23.2766787538       56.0372095106       57.3986808761  MEMB      18              0.0000000000
      2457        24  POPC      C34            25.2022358873       55.6851853163       56.4470729367  MEMB      18              0.0000000000
      2458        24  POPC      H4X            25.2882170642       54.5892721669       56.6225192336  MEMB      18              0.0000000000
      2459        24  POPC      H4Y            26.2286795454       56.1110242288       56.4942086326  MEMB      18              0.0000000000
      2460        24  POPC      C35            24.6000337902       55.9085039980       55.0522590976  MEMB      18              0.0000000000
      2461        24  POPC      H5X            24.3804067382       56.9913136631       54.9208705202  MEMB      18              0.0000000000
      2462        24  POPC      H5Y            23.6302992987       55.3717829780       54.9948645488  MEMB      18              0.0000000000
      2463        24  POPC      C36            25.5104546610       55.4630551239       53.8978008764  MEMB      18              0.0000000000
      2464        24  POPC      H6X            26.4530731608       56.0482240652       53.9454642919  MEMB      18              0.0000000000
      2465        24  POPC      H6Y            25.0118210618       55.7080829431       52.9326199683  MEMB      18              0.0000000000
      2466        24  POPC      C37            25.8791430352       53.9750110708       53.9104738462  MEMB      18              0.0000000000
      2467        24  POPC      H7X            24.9532016135       53.3636948693       53.9926667854  MEMB      18              0.0000000000
      2468        24  POPC      H7Y            26.5025907393       53.7523877379       54.8023446495  MEMB      18              0.0000000000
      2469        24  POPC      C38            26.6280318958       53.5487024126       52.6385627034  MEMB      18              0.0000000000
      2470        24  POPC      H8X            25.9981093308       53.8185579335       51.7625100063  MEMB      18              0.0000000000
      2471        24  POPC      H8Y            26.7348304580       52.4429736631       52.6420657156  MEMB      18              0.0000000000
      2472        24  POPC      C39            28.0254004389       54.1730052572       52.4967487026  MEMB      18              0.0000000000
      2473        24  POPC      H9X            28.6404432531       53.8863459038       53.3799584390  MEMB      18              0.0000000000
      2474        24  POPC      H9Y            27.9392600214       55.2824784038       52.4913171657  MEMB      18              0.0000000000
      2475        24  POPC      C310           28.7637731800       53.7456972038       51.2178196382  MEMB      18              0.0000000000
      2476        24  POPC      H10X           28.9556958485       52.6504590979       51.2317349169  MEMB      18              0.0000000000
      2477        24  POPC      H10Y           29.7574007241       54.2518911514       51.2116536509  MEMB      18              0.0000000000
      2478        24  POPC      C311           28.0109232233       54.1299411672       49.9344673261  MEMB      18              0.0000000000
      2479        24  POPC      H11X           28.7400421434       54.5158911176       49.1880702012  MEMB      18              0.0000000000
      2480        24  POPC      H11Y           27.3200379006       54.9691408511       50.1656453529  MEMB      18              0.0000000000
      2481        24  POPC      C312           27.2509184486       52.9626656187       49.2833228512  MEMB      18              0.0000000000
      2482        24  POPC      H12X           26.4698786986       52.5798942593       49.9749795234  MEMB      18              0.0000000000
      2483        24  POPC      H12Y           27.9705296722       52.1320817103       49.1009396577  MEMB      18              0.0000000000
      2484        24  POPC      C313           26.6045595770       53.3461962972       47.9419908768  MEMB      18              0.0000000000
      2485        24  POPC      H13X           26.1612441740       52.4379681118       47.4743652134  MEMB      18              0.0000000000
      2486        24  POPC      H13Y           27.4066847690       53.7137353112       47.2616009177  MEMB      18              0.0000000000
      2487        24  POPC      C314           25.5170961862       54.4291664686       48.0467015032  MEMB      18              0.0000000000
      2488        24  POPC      H14X           25.8872652569       55.2927112341       48.6357055159  MEMB      18              0.0000000000
      2489        24  POPC      H14Y           24.6420788206       54.0288530123       48.6008140294  MEMB      18              0.0000000000
      2490        24  POPC      C315           25.0876497475       54.9497068371       46.6681726014  MEMB      18              0.0000000000
      2491        24  POPC      H15X           24.5889517341       54.1296320047       46.1050682397  MEMB      18              0.0000000000
      2492        24  POPC      H15Y           25.9992931944       55.2285769142       46.0919443533  MEMB      18              0.0000000000
      2493        24  POPC      C316           24.1656550059       56.1685569178       46.7335413997  MEMB      18              0.0000000000
      2494        24  POPC      H16X           23.8857085549       56.4929346944       45.7079398535  MEMB      18              0.0000000000
      2495        24  POPC      H16Y           24.6793062550       57.0180558521       47.2349947116  MEMB      18              0.0000000000
      2496        24  POPC      H16Z           23.2386525201       55.9339756118       47.2994357486  MEMB      18              0.0000000000
      2497        25  POPC      N              55.3948575214       33.6443625108       66.2786048273  MEMB      19              0.0000000000
      2498        25  POPC      C12            55.5161667512       34.1178240699       64.8474496374  MEMB      19              0.0000000000
      2499        25  POPC      H12A           56.3606210562       33.6565048968       64.3471538102  MEMB      19              0.0000000000
      2500        25  POPC      H12B           55.7261935416       35.1871089138       64.8218027042  MEMB      19              0.0000000000
      2501        25  POPC      C13            56.5948976760       33.9153105841       67.1092996327  MEMB      19              0.0000000000
      2502        25  POPC      H13A           56.4301020748       33.6139878719       68.1424542385  MEMB      19              0.0000000000
      2503        25  POPC      H13B           57.4640034571       33.3883195468       66.7416141337  MEMB      19              0.0000000000
      2504        25  POPC      H13C           56.8675926950       34.9619994380       67.1359838156  MEMB      19              0.0000000000
      2505        25  POPC      C14            54.2141198202       34.2975294581       66.9372257488  MEMB      19              0.0000000000
      2506        25  POPC      H14A           54.3547382105       35.3622802043       67.0780621500  MEMB      19              0.0000000000
      2507        25  POPC      H14B           53.3360795740       34.1810659707       66.2894936820  MEMB      19              0.0000000000
      2508        25  POPC      H14C           53.9798286893       33.8226884646       67.8831880611  MEMB      19              0.0000000000
      2509        25  POPC      C15            55.1814337415       32.1629473065       66.2835646676  MEMB      19              0.0000000000
      2510        25  POPC      H15A           54.3165767960       31.8984833822       65.6776412695  MEMB      19              0.0000000000
      2511        25  POPC      H15B           54.9224237852       31.8221255622       67.2813779016  MEMB      19              0.0000000000
      2512        25  POPC      H15C           56.0409740323       31.6126303623       65.9281741079  MEMB      19              0.0000000000
      2513        25  POPC      C11            54.2391023568       33.9923221907       64.0056624117  MEMB      19              0.0000000000
      2514        25  POPC      H11A           53.7207662055       33.0237085819       64.1797200531  MEMB      19              0.0000000000
      2515        25  POPC      H11B           54.5158644181       33.9976230679       62.9206318106  MEMB      19              0.0000000000
      2516        25  POPC      P              53.3289715559       36.3548887307       63.4476944715  MEMB      19              0.0000000000
      2517        25  POPC      O13            52.3956781809       37.3221884623       64.0609933446  MEMB      19              0.0000000000
      2518        25  POPC      O14            53.1793732453       35.9705671018       62.0264685484  MEMB      19              0.0000000000
      2519        25  POPC      O12            53.3758087975       35.0755990670       64.3763707377  MEMB      19              0.0000000000
      2520        25  POPC      O11            54.8206100823       36.8618019654       63.6294306490  MEMB      19              0.0000000000
      2521        25  POPC      C1             55.3420256340       37.4583543679       64.7997867226  MEMB      19              0.0000000000
      2522        25  POPC      HA             55.1376427221       36.8282142473       65.6914830281  MEMB      19              0.0000000000
      2523        25  POPC      HB             54.8460726159       38.4422175794       64.9440599443  MEMB      19              0.0000000000
      2524        25  POPC      C2             56.8868898956       37.6754088465       64.6775537628  MEMB      19              0.0000000000
      2525        25  POPC      HS             57.2336100761       38.2477903163       65.5669784294  MEMB      19              0.0000000000
      2526        25  POPC      O21            57.2613319854       38.3462215317       63.4850643590  MEMB      19              0.0000000000
      2527        25  POPC      C21            56.8382964633       39.5510569271       63.3189020806  MEMB      19              0.0000000000
      2528        25  POPC      O22            56.3851102471       40.2895892839       64.1859824469  MEMB      19              0.0000000000
      2529        25  POPC      C22            56.8628103671       39.8482437183       61.8350767182  MEMB      19              0.0000000000
      2530        25  POPC      H2R            57.7489039070       39.3745970945       61.3655069507  MEMB      19              0.0000000000
      2531        25  POPC      H2S            57.0076117066       40.9379381260       61.7769450554  MEMB      19              0.0000000000
      2532        25  POPC      C3             57.7375709926       36.3945630942       64.6197062997  MEMB      19              0.0000000000
      2533        25  POPC      HX             57.6121612722       35.7963586320       65.5384494796  MEMB      19              0.0000000000
      2534        25  POPC      HY             58.7778499199       36.8142843547       64.6227578750  MEMB      19              0.0000000000
      2535        25  POPC      O31            57.4642423906       35.5944019596       63.4349582446  MEMB      19              0.0000000000
      2536        25  POPC      C31            58.5802502520       34.9853669374       63.0109267766  MEMB      19              0.0000000000
      2537        25  POPC      O32            59.5861164753       34.9311916393       63.6840368703  MEMB      19              0.0000000000
      2538        25  POPC      C32            58.3570651678       34.2923836854       61.6588207336  MEMB      19              0.0000000000
      2539        25  POPC      H2X            57.3500497526       33.8337483144       61.6734987470  MEMB      19              0.0000000000
      2540        25  POPC      H2Y            59.1187857644       33.4862048971       61.6005912818  MEMB      19              0.0000000000
      2541        25  POPC      C23            55.5471384551       39.4072448988       61.1518296297  MEMB      19              0.0000000000
      2542        25  POPC      H3R            55.2626464330       40.1692366831       60.3976287347  MEMB      19              0.0000000000
      2543        25  POPC      H3S            54.6995532984       39.3692244662       61.8726765683  MEMB      19              0.0000000000
      2544        25  POPC      C24            55.6531902168       38.0578211361       60.4227271797  MEMB      19              0.0000000000
      2545        25  POPC      H4R            55.5608182530       37.2434102674       61.1772817786  MEMB      19              0.0000000000
      2546        25  POPC      H4S            56.6556349611       37.9631672325       59.9537628054  MEMB      19              0.0000000000
      2547        25  POPC      C25            54.5738662042       37.8833681795       59.3389321642  MEMB      19              0.0000000000
      2548        25  POPC      H5R            53.7149251802       38.5412562592       59.5953827308  MEMB      19              0.0000000000
      2549        25  POPC      H5S            54.1934613283       36.8351248945       59.3632123510  MEMB      19              0.0000000000
      2550        25  POPC      C26            55.0991970971       38.1925991027       57.9286994396  MEMB      19              0.0000000000
      2551        25  POPC      H6R            55.6656484874       37.3080332352       57.5570771809  MEMB      19              0.0000000000
      2552        25  POPC      H6S            55.8114850411       39.0412662932       57.9912770107  MEMB      19              0.0000000000
      2553        25  POPC      C27            53.9966527228       38.5622872559       56.9261392069  MEMB      19              0.0000000000
      2554        25  POPC      H7R            53.5178137985       39.5116377519       57.2542940012  MEMB      19              0.0000000000
      2555        25  POPC      H7S            53.2155669934       37.7686232777       56.9517087515  MEMB      19              0.0000000000
      2556        25  POPC      C28            54.5147862716       38.6979520816       55.4802312415  MEMB      19              0.0000000000
      2557        25  POPC      H8R            53.6532523486       38.9528643675       54.8225384592  MEMB      19              0.0000000000
      2558        25  POPC      H8S            54.8651794320       37.6942892146       55.1522222192  MEMB      19              0.0000000000
      2559        25  POPC      C29            55.5902571542       39.7522124884       55.3362594759  MEMB      19              0.0000000000
      2560        25  POPC      H91            55.2848980218       40.7684962312       55.6267134661  MEMB      19              0.0000000000
      2561        25  POPC      C210           56.8572599007       39.5678105392       54.9214394751  MEMB      19              0.0000000000
      2562        25  POPC      H101           57.5214266938       40.4426691932       54.8481530366  MEMB      19              0.0000000000
      2563        25  POPC      C211           57.4918562621       38.2645948569       54.5077939257  MEMB      19              0.0000000000
      2564        25  POPC      H11R           56.9216063321       37.3872097951       54.8848287912  MEMB      19              0.0000000000
      2565        25  POPC      H11S           58.5046830729       38.1815571042       54.9592965691  MEMB      19              0.0000000000
      2566        25  POPC      C212           57.6270288028       38.1384961985       52.9798035271  MEMB      19              0.0000000000
      2567        25  POPC      H12R           58.1684261671       37.1882423856       52.7647404626  MEMB      19              0.0000000000
      2568        25  POPC      H12S           58.2450651851       38.9699106091       52.5749862798  MEMB      19              0.0000000000
      2569        25  POPC      C213           56.2709211922       38.0904692869       52.2589428318  MEMB      19              0.0000000000
      2570        25  POPC      H13R           55.7446305842       39.0654996850       52.3474360875  MEMB      19              0.0000000000
      2571        25  POPC      H13S           55.6398364734       37.3249680224       52.7659186567  MEMB      19              0.0000000000
      2572        25  POPC      C214           56.3893178673       37.7004279439       50.7810590817  MEMB      19              0.0000000000
      2573        25  POPC      H14R           55.3881592021       37.3752876812       50.4215422546  MEMB      19              0.0000000000
      2574        25  POPC      H14S           57.0734975324       36.8288445266       50.6914007306  MEMB      19              0.0000000000
      2575        25  POPC      C215           56.8632084789       38.8436827532       49.8737814128  MEMB      19              0.0000000000
      2576        25  POPC      H15R           57.7908889378       39.3053103748       50.2769037345  MEMB      19              0.0000000000
      2577        25  POPC      H15S           56.0756885370       39.6317327649       49.8795298231  MEMB      19              0.0000000000
      2578        25  POPC      C216           57.0999237525       38.3809852910       48.4275549654  MEMB      19              0.0000000000
      2579        25  POPC      H16R           56.6754429091       39.1425916285       47.7346606570  MEMB      19              0.0000000000
      2580        25  POPC      H16S           56.5515611559       37.4294337828       48.2488925629  MEMB      19              0.0000000000
      2581        25  POPC      C217           58.5850101756       38.1995456506       48.0748330820  MEMB      19              0.0000000000
      2582        25  POPC      H17R           59.0826124750       39.1926543302       48.1598070331  MEMB      19              0.0000000000
      2583        25  POPC      H17S           58.6564737501       37.8867264462       47.0091462105  MEMB      19              0.0000000000
      2584        25  POPC      C218           59.3410560348       37.1920277378       48.9474981435  MEMB      19              0.0000000000
      2585        25  POPC      H18R           58.8376302069       36.2011411223       48.9216399574  MEMB      19              0.0000000000
      2586        25  POPC      H18S           59.3746039687       37.5425871535       50.0017550664  MEMB      19              0.0000000000
      2587        25  POPC      H18T           60.3846957980       37.0696649835       48.5881704880  MEMB      19              0.0000000000
      2588        25  POPC      C33            58.5186121116       35.2142996063       60.4202181983  MEMB      19              0.0000000000
      2589        25  POPC      H3X            59.5561817239       35.6267371985       60.4288146238  MEMB      19              0.0000000000
      2590        25  POPC      H3Y            57.8127594882       36.0704829211       60.4927659103  MEMB      19              0.0000000000
      2591        25  POPC      C34            58.3000884312       34.4894446420       59.0703921817  MEMB      19              0.0000000000
      2592        25  POPC      H4X            58.9760582671       33.6051885749       59.0358746152  MEMB      19              0.0000000000
      2593        25  POPC      H4Y            58.6010723706       35.1769188366       58.2484037201  MEMB      19              0.0000000000
      2594        25  POPC      C35            56.8572507430       34.0181903801       58.8066684006  MEMB      19              0.0000000000
      2595        25  POPC      H5X            56.1927430399       34.8996273669       58.6612725522  MEMB      19              0.0000000000
      2596        25  POPC      H5Y            56.4958243430       33.4730771067       59.7068123252  MEMB      19              0.0000000000
      2597        25  POPC      C36            56.7166236748       33.0588669564       57.6086226945  MEMB      19              0.0000000000
      2598        25  POPC      H6X            55.6790891184       32.6513496266       57.6047252327  MEMB      19              0.0000000000
      2599        25  POPC      H6Y            57.4084530275       32.1980325106       57.7468638313  MEMB      19              0.0000000000
      2600        25  POPC      C37            56.9793011515       33.7123575473       56.2429045607  MEMB      19              0.0000000000
      2601        25  POPC      H7X            58.0349871700       34.0584662626       56.1927249391  MEMB      19              0.0000000000
      2602        25  POPC      H7Y            56.3212931036       34.6047930791       56.1503813425  MEMB      19              0.0000000000
      2603        25  POPC      C38            56.7117691719       32.7517908684       55.0700778735  MEMB      19              0.0000000000
      2604        25  POPC      H8X            55.6548284980       32.4097950981       55.1108924242  MEMB      19              0.0000000000
      2605        25  POPC      H8Y            57.3526121355       31.8509529665       55.2085721903  MEMB      19              0.0000000000
      2606        25  POPC      C39            57.0133227699       33.3495331650       53.6818053046  MEMB      19              0.0000000000
      2607        25  POPC      H9X            56.8983867230       32.5582946555       52.9089766353  MEMB      19              0.0000000000
      2608        25  POPC      H9Y            58.0810933087       33.6677859693       53.6738294501  MEMB      19              0.0000000000
      2609        25  POPC      C310           56.1445340530       34.5580357756       53.2864302748  MEMB      19              0.0000000000
      2610        25  POPC      H10X           56.5819806902       35.0398147703       52.3845966800  MEMB      19              0.0000000000
      2611        25  POPC      H10Y           56.1981729842       35.3118822843       54.1017513154  MEMB      19              0.0000000000
      2612        25  POPC      C311           54.6618721518       34.2386727146       53.0176631818  MEMB      19              0.0000000000
      2613        25  POPC      H11X           54.0811144230       35.1866821803       53.0958121759  MEMB      19              0.0000000000
      2614        25  POPC      H11Y           54.2829827734       33.5577837625       53.8095946359  MEMB      19              0.0000000000
      2615        25  POPC      C312           54.3735644897       33.6300889479       51.6317938407  MEMB      19              0.0000000000
      2616        25  POPC      H12X           53.3120626994       33.2951777501       51.6147348681  MEMB      19              0.0000000000
      2617        25  POPC      H12Y           55.0100596372       32.7335809710       51.4718121729  MEMB      19              0.0000000000
      2618        25  POPC      C313           54.5691336757       34.6257348495       50.4776411390  MEMB      19              0.0000000000
      2619        25  POPC      H13X           55.6436288853       34.9062569225       50.4150253780  MEMB      19              0.0000000000
      2620        25  POPC      H13Y           53.9871134461       35.5464558207       50.7031684805  MEMB      19              0.0000000000
      2621        25  POPC      C314           54.1316035301       34.0788121363       49.1099564328  MEMB      19              0.0000000000
      2622        25  POPC      H14X           53.0450172546       33.8399938472       49.1356754483  MEMB      19              0.0000000000
      2623        25  POPC      H14Y           54.6792769169       33.1280322250       48.9183926527  MEMB      19              0.0000000000
      2624        25  POPC      C315           54.4145071274       35.0479746883       47.9488908849  MEMB      19              0.0000000000
      2625        25  POPC      H15X           54.2079722963       34.5147168633       46.9918585483  MEMB      19              0.0000000000
      2626        25  POPC      H15Y           55.4981683833       35.3054662901       47.9611368007  MEMB      19              0.0000000000
      2627        25  POPC      C316           53.5985764701       36.3440754511       47.9685181354  MEMB      19              0.0000000000
      2628        25  POPC      H16X           52.5155060872       36.1116372153       47.9534303764  MEMB      19              0.0000000000
      2629        25  POPC      H16Y           53.8352210009       36.9667455873       47.0790845762  MEMB      19              0.0000000000
      2630        25  POPC      H16Z           53.8160823135       36.9411718966       48.8781160535  MEMB      19              0.0000000000
      2631        26  POPC      N              51.9009869985       42.1459698783       65.9481241262  MEMB      20              0.0000000000
      2632        26  POPC      C12            52.3880158670       42.7657519923       64.6419993483  MEMB      20              0.0000000000
      2633        26  POPC      H12A           51.6761358829       42.5341041724       63.8646882390  MEMB      20              0.0000000000
      2634        26  POPC      H12B           53.3106783424       42.2624422539       64.3784680353  MEMB      20              0.0000000000
      2635        26  POPC      C13            50.4051296822       42.1024894749       66.0369632910  MEMB      20              0.0000000000
      2636        26  POPC      H13A           49.9842768255       43.0663498382       65.7699648533  MEMB      20              0.0000000000
      2637        26  POPC      H13B           49.9918450665       41.3497262163       65.3554374174  MEMB      20              0.0000000000
      2638        26  POPC      H13C           50.0626885189       41.7815266309       67.0197857646  MEMB      20              0.0000000000
      2639        26  POPC      C14            52.3585524893       40.7120957190       66.0306280995  MEMB      20              0.0000000000
      2640        26  POPC      H14A           53.4338000175       40.6525722198       66.0862277403  MEMB      20              0.0000000000
      2641        26  POPC      H14B           51.9261411083       40.2318344481       66.9037491131  MEMB      20              0.0000000000
      2642        26  POPC      H14C           52.0196395074       40.1208101506       65.1779754556  MEMB      20              0.0000000000
      2643        26  POPC      C15            52.4653759366       42.9130964990       67.0945121090  MEMB      20              0.0000000000
      2644        26  POPC      H15A           51.8825328533       43.8187756933       67.2191224147  MEMB      20              0.0000000000
      2645        26  POPC      H15B           53.4927030157       43.1996442900       66.8999699574  MEMB      20              0.0000000000
      2646        26  POPC      H15C           52.4269851684       42.3197833419       67.9973520189  MEMB      20              0.0000000000
      2647        26  POPC      C11            52.7293599383       44.2880903470       64.5203817829  MEMB      20              0.0000000000
      2648        26  POPC      H11A           53.2084097804       44.3865085991       63.5104637137  MEMB      20              0.0000000000
      2649        26  POPC      H11B           53.5140428764       44.5641499192       65.2571875390  MEMB      20              0.0000000000
      2650        26  POPC      P              51.7484851258       46.6131465921       63.9604538333  MEMB      20              0.0000000000
      2651        26  POPC      O13            53.1869493037       46.9868471426       63.9867548328  MEMB      20              0.0000000000
      2652        26  POPC      O14            50.8215837410       47.5492143126       64.6578211279  MEMB      20              0.0000000000
      2653        26  POPC      O12            51.6007809422       45.1668622922       64.6482379644  MEMB      20              0.0000000000
      2654        26  POPC      O11            51.3131277097       46.3491699767       62.4581859272  MEMB      20              0.0000000000
      2655        26  POPC      C1             50.0984942308       46.8218028986       61.8868055931  MEMB      20              0.0000000000
      2656        26  POPC      HA             50.2108571267       46.8087463746       60.7782724724  MEMB      20              0.0000000000
      2657        26  POPC      HB             49.8770283685       47.8670611813       62.1925833553  MEMB      20              0.0000000000
      2658        26  POPC      C2             48.9185696072       45.8851297731       62.2230830357  MEMB      20              0.0000000000
      2659        26  POPC      HS             48.7904742644       45.9274208115       63.3329150018  MEMB      20              0.0000000000
      2660        26  POPC      O21            49.2639723562       44.5777064525       61.7320469638  MEMB      20              0.0000000000
      2661        26  POPC      C21            49.5355644786       43.6917735606       62.6750022544  MEMB      20              0.0000000000
      2662        26  POPC      O22            49.1956157193       43.7706139282       63.8462838538  MEMB      20              0.0000000000
      2663        26  POPC      C22            50.1806746648       42.4418969276       62.0596181861  MEMB      20              0.0000000000
      2664        26  POPC      H2R            49.4756256697       42.0270024400       61.3245469927  MEMB      20              0.0000000000
      2665        26  POPC      H2S            50.2718670639       41.6837188902       62.8679122441  MEMB      20              0.0000000000
      2666        26  POPC      C3             47.5681440012       46.3504203804       61.6071754493  MEMB      20              0.0000000000
      2667        26  POPC      HX             47.3358872050       47.3500426344       62.0310019089  MEMB      20              0.0000000000
      2668        26  POPC      HY             46.7764525456       45.6544252613       61.9687379674  MEMB      20              0.0000000000
      2669        26  POPC      O31            47.6292655908       46.4706762162       60.1708516030  MEMB      20              0.0000000000
      2670        26  POPC      C31            46.8448179122       45.6481319980       59.4719720554  MEMB      20              0.0000000000
      2671        26  POPC      O32            46.0659505725       44.8409193516       59.9447168640  MEMB      20              0.0000000000
      2672        26  POPC      C32            47.0074780934       45.9482137120       57.9842318001  MEMB      20              0.0000000000
      2673        26  POPC      H2X            46.9247637793       47.0473480586       57.8665734383  MEMB      20              0.0000000000
      2674        26  POPC      H2Y            46.1515957595       45.4740574336       57.4593815522  MEMB      20              0.0000000000
      2675        26  POPC      C23            51.5504861101       42.6492256632       61.3683838772  MEMB      20              0.0000000000
      2676        26  POPC      H3R            52.0082878172       41.6385750238       61.2353065319  MEMB      20              0.0000000000
      2677        26  POPC      H3S            52.2411781810       43.2531330154       61.9891259168  MEMB      20              0.0000000000
      2678        26  POPC      C24            51.4445493306       43.2959402524       59.9843814459  MEMB      20              0.0000000000
      2679        26  POPC      H4R            51.1595252271       44.3685280382       60.0839420645  MEMB      20              0.0000000000
      2680        26  POPC      H4S            50.6373423646       42.7968202228       59.4083110647  MEMB      20              0.0000000000
      2681        26  POPC      C25            52.7491983523       43.1806805710       59.1877660818  MEMB      20              0.0000000000
      2682        26  POPC      H5R            53.1112018725       42.1287380673       59.2546937500  MEMB      20              0.0000000000
      2683        26  POPC      H5S            53.5283645176       43.8323990786       59.6423327435  MEMB      20              0.0000000000
      2684        26  POPC      C26            52.5643131412       43.5244558972       57.7043134026  MEMB      20              0.0000000000
      2685        26  POPC      H6R            52.2750663502       44.5941578894       57.5995079923  MEMB      20              0.0000000000
      2686        26  POPC      H6S            51.7243167124       42.9142150105       57.3001755691  MEMB      20              0.0000000000
      2687        26  POPC      C27            53.8311733259       43.2512783733       56.8813562129  MEMB      20              0.0000000000
      2688        26  POPC      H7R            54.2571407838       42.2676328321       57.1862507092  MEMB      20              0.0000000000
      2689        26  POPC      H7S            54.5865538681       44.0276720145       57.1393323604  MEMB      20              0.0000000000
      2690        26  POPC      C28            53.5802573025       43.2713983729       55.3599472638  MEMB      20              0.0000000000
      2691        26  POPC      H8R            54.5694333738       43.3033578136       54.8505484786  MEMB      20              0.0000000000
      2692        26  POPC      H8S            53.0481703854       44.2142611703       55.1010201318  MEMB      20              0.0000000000
      2693        26  POPC      C29            52.8305481409       42.0426529036       54.9031697362  MEMB      20              0.0000000000
      2694        26  POPC      H91            53.1372365120       41.1186800142       55.4132939325  MEMB      20              0.0000000000
      2695        26  POPC      C210           51.8265623067       41.9543811936       54.0127922031  MEMB      20              0.0000000000
      2696        26  POPC      H101           51.4098625612       40.9571207173       53.8050348275  MEMB      20              0.0000000000
      2697        26  POPC      C211           51.1772480637       43.0660227141       53.2275374509  MEMB      20              0.0000000000
      2698        26  POPC      H11R           51.4166190613       42.9528934461       52.1478186868  MEMB      20              0.0000000000
      2699        26  POPC      H11S           51.5606023554       44.0629805951       53.5344052466  MEMB      20              0.0000000000
      2700        26  POPC      C212           49.6432996171       43.0954450876       53.3900860976  MEMB      20              0.0000000000
      2701        26  POPC      H12R           49.2382609336       43.9095765527       52.7477159588  MEMB      20              0.0000000000
      2702        26  POPC      H12S           49.4006156901       43.3604258328       54.4452993410  MEMB      20              0.0000000000
      2703        26  POPC      C213           48.9132804982       41.7854645981       53.0321129692  MEMB      20              0.0000000000
      2704        26  POPC      H13R           47.8229962130       41.9595802894       53.1548643764  MEMB      20              0.0000000000
      2705        26  POPC      H13S           49.1943198501       40.9918492436       53.7579454559  MEMB      20              0.0000000000
      2706        26  POPC      C214           49.1723483832       41.2822158156       51.6050095862  MEMB      20              0.0000000000
      2707        26  POPC      H14R           50.2570893713       41.0735343428       51.4767874754  MEMB      20              0.0000000000
      2708        26  POPC      H14S           48.8884221545       42.0875796285       50.8921283871  MEMB      20              0.0000000000
      2709        26  POPC      C215           48.3782619148       40.0120278181       51.2637399166  MEMB      20              0.0000000000
      2710        26  POPC      H15R           47.2950681059       40.2587741633       51.2494292405  MEMB      20              0.0000000000
      2711        26  POPC      H15S           48.5313520814       39.2573136805       52.0682047029  MEMB      20              0.0000000000
      2712        26  POPC      C216           48.7579344263       39.3706675343       49.9170343507  MEMB      20              0.0000000000
      2713        26  POPC      H16R           47.9874441588       38.6076776400       49.6667271503  MEMB      20              0.0000000000
      2714        26  POPC      H16S           49.7320736810       38.8438823041       50.0327388907  MEMB      20              0.0000000000
      2715        26  POPC      C217           48.8794577342       40.3541863055       48.7443800375  MEMB      20              0.0000000000
      2716        26  POPC      H17R           49.6993023855       41.0760754767       48.9617911772  MEMB      20              0.0000000000
      2717        26  POPC      H17S           47.9334533770       40.9335677385       48.6562493923  MEMB      20              0.0000000000
      2718        26  POPC      C218           49.1777497329       39.6670584554       47.4081134635  MEMB      20              0.0000000000
      2719        26  POPC      H18R           48.3022430933       39.0694057794       47.0769340353  MEMB      20              0.0000000000
      2720        26  POPC      H18S           50.0513560110       38.9875234857       47.5055807466  MEMB      20              0.0000000000
      2721        26  POPC      H18T           49.4092065778       40.4195244175       46.6257267985  MEMB      20              0.0000000000
      2722        26  POPC      C33            48.3413775043       45.4352286295       57.3911776076  MEMB      20              0.0000000000
      2723        26  POPC      H3X            48.3207512657       44.3235141038       57.3614281588  MEMB      20              0.0000000000
      2724        26  POPC      H3Y            49.1965454465       45.7198704486       58.0460626218  MEMB      20              0.0000000000
      2725        26  POPC      C34            48.6131622766       45.9351990603       55.9597119242  MEMB      20              0.0000000000
      2726        26  POPC      H4X            47.7898179992       45.5935027804       55.2927043081  MEMB      20              0.0000000000
      2727        26  POPC      H4Y            49.5510978763       45.4554340762       55.5984145373  MEMB      20              0.0000000000
      2728        26  POPC      C35            48.7640047411       47.4593841126       55.8317271115  MEMB      20              0.0000000000
      2729        26  POPC      H5X            47.7839828895       47.9372224639       56.0504893048  MEMB      20              0.0000000000
      2730        26  POPC      H5Y            49.0277381165       47.7214900561       54.7837234151  MEMB      20              0.0000000000
      2731        26  POPC      C36            49.8147993389       48.0687834052       56.7687837654  MEMB      20              0.0000000000
      2732        26  POPC      H6X            49.5898120154       47.7882467993       57.8211836516  MEMB      20              0.0000000000
      2733        26  POPC      H6Y            49.7168168695       49.1738111658       56.7065642056  MEMB      20              0.0000000000
      2734        26  POPC      C37            51.2617442234       47.6816908822       56.4279016603  MEMB      20              0.0000000000
      2735        26  POPC      H7X            51.3876505472       46.5774262195       56.4413247955  MEMB      20              0.0000000000
      2736        26  POPC      H7Y            51.9090191480       48.0821329269       57.2399993389  MEMB      20              0.0000000000
      2737        26  POPC      C38            51.7510515531       48.2700480676       55.0907161124  MEMB      20              0.0000000000
      2738        26  POPC      H8X            52.7760416372       48.6781469266       55.2461240344  MEMB      20              0.0000000000
      2739        26  POPC      H8Y            51.1063847746       49.1273613265       54.7952402040  MEMB      20              0.0000000000
      2740        26  POPC      C39            51.8126301481       47.2521256085       53.9382987168  MEMB      20              0.0000000000
      2741        26  POPC      H9X            51.0937274112       47.5590154330       53.1461539077  MEMB      20              0.0000000000
      2742        26  POPC      H9Y            51.4960383438       46.2503070742       54.3028366576  MEMB      20              0.0000000000
      2743        26  POPC      C310           53.2262667544       47.1391898480       53.3448730390  MEMB      20              0.0000000000
      2744        26  POPC      H10X           53.9432510677       46.9423418978       54.1743941362  MEMB      20              0.0000000000
      2745        26  POPC      H10Y           53.4994851903       48.1173360745       52.8931651472  MEMB      20              0.0000000000
      2746        26  POPC      C311           53.4030760852       46.0330822865       52.2903716554  MEMB      20              0.0000000000
      2747        26  POPC      H11X           53.3568025602       45.0427670872       52.7944639399  MEMB      20              0.0000000000
      2748        26  POPC      H11Y           54.4205764996       46.1247191076       51.8470855770  MEMB      20              0.0000000000
      2749        26  POPC      C312           52.3625420080       46.0627234172       51.1602421226  MEMB      20              0.0000000000
      2750        26  POPC      H12X           52.3586709871       47.0687554175       50.6843263051  MEMB      20              0.0000000000
      2751        26  POPC      H12Y           51.3553680223       45.8878168203       51.5993661801  MEMB      20              0.0000000000
      2752        26  POPC      C313           52.6389675817       44.9986718292       50.0863552016  MEMB      20              0.0000000000
      2753        26  POPC      H13X           52.7202106600       44.0009227240       50.5727796880  MEMB      20              0.0000000000
      2754        26  POPC      H13Y           53.6235379761       45.2204000239       49.6141837778  MEMB      20              0.0000000000
      2755        26  POPC      C314           51.5628494797       44.9251546868       48.9886911546  MEMB      20              0.0000000000
      2756        26  POPC      H14X           51.9240247057       44.2259887594       48.2005286390  MEMB      20              0.0000000000
      2757        26  POPC      H14Y           51.4333369578       45.9279599859       48.5266043950  MEMB      20              0.0000000000
      2758        26  POPC      C315           50.2011687917       44.4172771024       49.4844412260  MEMB      20              0.0000000000
      2759        26  POPC      H15X           49.7546333212       45.1671356494       50.1756876943  MEMB      20              0.0000000000
      2760        26  POPC      H15Y           50.3744494756       43.4868142513       50.0707334360  MEMB      20              0.0000000000
      2761        26  POPC      C316           49.2090467216       44.1111247373       48.3567042483  MEMB      20              0.0000000000
      2762        26  POPC      H16X           49.6143277372       43.3182443617       47.6908499921  MEMB      20              0.0000000000
      2763        26  POPC      H16Y           49.0117201409       45.0188891076       47.7478026914  MEMB      20              0.0000000000
      2764        26  POPC      H16Z           48.2442466759       43.7518748489       48.7756596389  MEMB      20              0.0000000000
      2765        27  POPC      N              13.0009225485       27.7662973700       66.1537403112  MEMB      21              0.0000000000
      2766        27  POPC      C12            11.9906828712       28.1306642349       65.0651609978  MEMB      21              0.0000000000
      2767        27  POPC      H12A           12.3922156968       28.9580114413       64.4919428289  MEMB      21              0.0000000000
      2768        27  POPC      H12B           11.0523490859       28.4581192046       65.4935672248  MEMB      21              0.0000000000
      2769        27  POPC      C13            14.3520113846       27.6656804345       65.5141488034  MEMB      21              0.0000000000
      2770        27  POPC      H13A           14.6817165124       28.6284285678       65.1530483083  MEMB      21              0.0000000000
      2771        27  POPC      H13B           15.0825743474       27.2644875271       66.1951350240  MEMB      21              0.0000000000
      2772        27  POPC      H13C           14.2553939478       26.9764320025       64.6686195475  MEMB      21              0.0000000000
      2773        27  POPC      C14            13.0707003811       28.7389728636       67.2736125601  MEMB      21              0.0000000000
      2774        27  POPC      H14A           13.8189671394       28.4447940228       68.0077465359  MEMB      21              0.0000000000
      2775        27  POPC      H14B           13.3010128685       29.7393565049       66.9347520710  MEMB      21              0.0000000000
      2776        27  POPC      H14C           12.1324419724       28.7970354990       67.8256698837  MEMB      21              0.0000000000
      2777        27  POPC      C15            12.6536212876       26.4354873709       66.7504854683  MEMB      21              0.0000000000
      2778        27  POPC      H15A           11.6866858020       26.4558787556       67.2373570370  MEMB      21              0.0000000000
      2779        27  POPC      H15B           13.3796649582       26.1150889583       67.4859839503  MEMB      21              0.0000000000
      2780        27  POPC      H15C           12.6073657161       25.6674444144       65.9729140366  MEMB      21              0.0000000000
      2781        27  POPC      C11            11.6096556399       27.0124155887       64.0543573460  MEMB      21              0.0000000000
      2782        27  POPC      H11A           11.1126864366       27.4614315788       63.1626790005  MEMB      21              0.0000000000
      2783        27  POPC      H11B           10.8400275368       26.3765061774       64.5630799508  MEMB      21              0.0000000000
      2784        27  POPC      P              12.6805398970       24.6988751294       63.5213708810  MEMB      21              0.0000000000
      2785        27  POPC      O13            12.1274029989       24.1683688869       64.7943526155  MEMB      21              0.0000000000
      2786        27  POPC      O14            14.0142980916       24.1884960915       63.1287659181  MEMB      21              0.0000000000
      2787        27  POPC      O12            12.7592931124       26.2802688127       63.6284818982  MEMB      21              0.0000000000
      2788        27  POPC      O11            11.6259594350       24.4564944105       62.3399160838  MEMB      21              0.0000000000
      2789        27  POPC      C1             11.4866755127       23.1596793075       61.7344639277  MEMB      21              0.0000000000
      2790        27  POPC      HA             10.4986300183       22.7476101300       62.0320578003  MEMB      21              0.0000000000
      2791        27  POPC      HB             12.2596851960       22.4244882102       62.0684489217  MEMB      21              0.0000000000
      2792        27  POPC      C2             11.5142061766       23.1872786271       60.1687081674  MEMB      21              0.0000000000
      2793        27  POPC      HS             10.6958350079       22.5202062017       59.8124000155  MEMB      21              0.0000000000
      2794        27  POPC      O21            12.7744719998       22.6566670035       59.7249089223  MEMB      21              0.0000000000
      2795        27  POPC      C21            12.8796972137       22.4496247761       58.4131970376  MEMB      21              0.0000000000
      2796        27  POPC      O22            12.0955559030       21.8206373657       57.7268018957  MEMB      21              0.0000000000
      2797        27  POPC      C22            14.0309610910       23.3142789683       57.8974455294  MEMB      21              0.0000000000
      2798        27  POPC      H2R            14.4727802814       23.8688191856       58.7512903708  MEMB      21              0.0000000000
      2799        27  POPC      H2S            13.5999457937       24.0629922082       57.2028128257  MEMB      21              0.0000000000
      2800        27  POPC      C3             11.2883565109       24.6120707934       59.5600125148  MEMB      21              0.0000000000
      2801        27  POPC      HX             12.1804483246       25.2292814924       59.8104585467  MEMB      21              0.0000000000
      2802        27  POPC      HY             10.4053638890       25.0986287899       60.0160208585  MEMB      21              0.0000000000
      2803        27  POPC      O31            11.1294098212       24.4884872535       58.1392765482  MEMB      21              0.0000000000
      2804        27  POPC      C31            10.6881392345       25.4914857464       57.4199610526  MEMB      21              0.0000000000
      2805        27  POPC      O32            10.3388467358       26.5838095703       57.8268940524  MEMB      21              0.0000000000
      2806        27  POPC      C32            10.6518894157       25.0075970910       55.9621803815  MEMB      21              0.0000000000
      2807        27  POPC      H2X             9.6811070756       24.4790974705       55.8473583132  MEMB      21              0.0000000000
      2808        27  POPC      H2Y            11.4596998643       24.2645104277       55.8006615709  MEMB      21              0.0000000000
      2809        27  POPC      C23            15.1328886993       22.5082354054       57.1935511945  MEMB      21              0.0000000000
      2810        27  POPC      H3R            14.7198269109       22.0140716571       56.2878339745  MEMB      21              0.0000000000
      2811        27  POPC      H3S            15.4811658060       21.6926109640       57.8677457256  MEMB      21              0.0000000000
      2812        27  POPC      C24            16.3428706724       23.3902489676       56.8357301572  MEMB      21              0.0000000000
      2813        27  POPC      H4R            17.1556027776       22.7311542776       56.4535800468  MEMB      21              0.0000000000
      2814        27  POPC      H4S            16.7172586019       23.8878313092       57.7509103114  MEMB      21              0.0000000000
      2815        27  POPC      C25            16.0659361253       24.4804020231       55.7893200327  MEMB      21              0.0000000000
      2816        27  POPC      H5R            17.0402174070       24.9501742340       55.5170910788  MEMB      21              0.0000000000
      2817        27  POPC      H5S            15.4052288262       25.2755874021       56.1963546592  MEMB      21              0.0000000000
      2818        27  POPC      C26            15.4442397602       23.8499878950       54.5527398227  MEMB      21              0.0000000000
      2819        27  POPC      H6R            14.3649791683       23.6263338510       54.7093718506  MEMB      21              0.0000000000
      2820        27  POPC      H6S            15.9827616932       22.8810304843       54.4410451918  MEMB      21              0.0000000000
      2821        27  POPC      C27            15.6474113746       24.6000443550       53.2385109612  MEMB      21              0.0000000000
      2822        27  POPC      H7R            16.5722023643       25.2188549610       53.2897476870  MEMB      21              0.0000000000
      2823        27  POPC      H7S            14.7930724363       25.2860087633       53.0571878283  MEMB      21              0.0000000000
      2824        27  POPC      C28            15.8029231503       23.6077358179       52.0741231113  MEMB      21              0.0000000000
      2825        27  POPC      H8R            16.8323114971       23.1919010726       52.1379561006  MEMB      21              0.0000000000
      2826        27  POPC      H8S            15.7395566409       24.1815040383       51.1238565770  MEMB      21              0.0000000000
      2827        27  POPC      C29            14.8369585310       22.4475363164       52.1257679465  MEMB      21              0.0000000000
      2828        27  POPC      H91            15.1094170799       21.6497776182       52.8328986017  MEMB      21              0.0000000000
      2829        27  POPC      C210           13.7003802943       22.3170531957       51.4354968783  MEMB      21              0.0000000000
      2830        27  POPC      H101           13.0845875044       21.4176555248       51.5869479118  MEMB      21              0.0000000000
      2831        27  POPC      C211           13.1653559607       23.3225313800       50.4588083792  MEMB      21              0.0000000000
      2832        27  POPC      H11R           13.9716295533       23.9568407476       50.0282765872  MEMB      21              0.0000000000
      2833        27  POPC      H11S           12.4660100480       24.0083737945       50.9801013549  MEMB      21              0.0000000000
      2834        27  POPC      C212           12.4408791122       22.6429593702       49.2913159683  MEMB      21              0.0000000000
      2835        27  POPC      H12R           13.1282091605       21.9253903509       48.7920497332  MEMB      21              0.0000000000
      2836        27  POPC      H12S           12.2011076516       23.4200623735       48.5387035456  MEMB      21              0.0000000000
      2837        27  POPC      C213           11.1375010544       21.9370249511       49.6917294590  MEMB      21              0.0000000000
      2838        27  POPC      H13R           11.3699847807       21.0711674059       50.3459717965  MEMB      21              0.0000000000
      2839        27  POPC      H13S           10.6579204387       21.5262989343       48.7759003095  MEMB      21              0.0000000000
      2840        27  POPC      C214           10.1264423944       22.8194465807       50.4372674608  MEMB      21              0.0000000000
      2841        27  POPC      H14R           10.5308473657       23.1100940336       51.4315014622  MEMB      21              0.0000000000
      2842        27  POPC      H14S            9.2386982387       22.1813361195       50.6341343301  MEMB      21              0.0000000000
      2843        27  POPC      C215            9.6930136486       24.0885103556       49.6813270295  MEMB      21              0.0000000000
      2844        27  POPC      H15R           10.4891889457       24.8580754783       49.7400908165  MEMB      21              0.0000000000
      2845        27  POPC      H15S            8.7997472947       24.5089191351       50.1957744726  MEMB      21              0.0000000000
      2846        27  POPC      C216            9.3564002052       23.8339029136       48.2060935186  MEMB      21              0.0000000000
      2847        27  POPC      H16R            8.9185413836       22.8205397645       48.1222009829  MEMB      21              0.0000000000
      2848        27  POPC      H16S           10.2834478333       23.8298424706       47.5963825913  MEMB      21              0.0000000000
      2849        27  POPC      C217            8.3702216462       24.8467231678       47.6249305157  MEMB      21              0.0000000000
      2850        27  POPC      H17R            8.8084358993       25.8651479688       47.6976915214  MEMB      21              0.0000000000
      2851        27  POPC      H17S            7.4399471320       24.8303720348       48.2388953556  MEMB      21              0.0000000000
      2852        27  POPC      C218            8.0184504461       24.5593871359       46.1695992378  MEMB      21              0.0000000000
      2853        27  POPC      H18R            7.2645331109       25.2815439710       45.8068855257  MEMB      21              0.0000000000
      2854        27  POPC      H18S            7.5802156747       23.5477439398       46.0747649154  MEMB      21              0.0000000000
      2855        27  POPC      H18T            8.9155535331       24.6057539749       45.5184063634  MEMB      21              0.0000000000
      2856        27  POPC      C33            10.7423410636       26.1230383948       54.8956383854  MEMB      21              0.0000000000
      2857        27  POPC      H3X            10.2233323674       27.0411843454       55.2378163063  MEMB      21              0.0000000000
      2858        27  POPC      H3Y            10.2107984608       25.7487978921       53.9892407028  MEMB      21              0.0000000000
      2859        27  POPC      C34            12.1673653815       26.5057415423       54.4685543543  MEMB      21              0.0000000000
      2860        27  POPC      H4X            12.7471819313       25.5906377701       54.2113400442  MEMB      21              0.0000000000
      2861        27  POPC      H4Y            12.6751032710       26.9991482149       55.3269547936  MEMB      21              0.0000000000
      2862        27  POPC      C35            12.1701027058       27.4592991885       53.2558744507  MEMB      21              0.0000000000
      2863        27  POPC      H5X            13.1118645111       28.0549920881       53.2624925037  MEMB      21              0.0000000000
      2864        27  POPC      H5Y            11.3200697717       28.1724057458       53.3372219302  MEMB      21              0.0000000000
      2865        27  POPC      C36            12.1052887964       26.6946699889       51.9250001684  MEMB      21              0.0000000000
      2866        27  POPC      H6X            11.2717388527       25.9580410999       51.9443863353  MEMB      21              0.0000000000
      2867        27  POPC      H6Y            13.0520819844       26.1145235467       51.8327256156  MEMB      21              0.0000000000
      2868        27  POPC      C37            11.9457722880       27.5757339092       50.6708280643  MEMB      21              0.0000000000
      2869        27  POPC      H7X            12.4839781530       28.5387919170       50.8069925073  MEMB      21              0.0000000000
      2870        27  POPC      H7Y            10.8649370055       27.8014544054       50.5341633827  MEMB      21              0.0000000000
      2871        27  POPC      C38            12.4981365696       26.8652379337       49.4229484084  MEMB      21              0.0000000000
      2872        27  POPC      H8X            12.4314920154       25.7704391020       49.6015643711  MEMB      21              0.0000000000
      2873        27  POPC      H8Y            13.5787870155       27.0989109440       49.3048615159  MEMB      21              0.0000000000
      2874        27  POPC      C39            11.7475855683       27.1313190549       48.1074047037  MEMB      21              0.0000000000
      2875        27  POPC      H9X            11.9001674297       28.1829012926       47.7861971013  MEMB      21              0.0000000000
      2876        27  POPC      H9Y            10.6597645773       26.9711130602       48.2687383183  MEMB      21              0.0000000000
      2877        27  POPC      C310           12.2371828526       26.1631507526       47.0172208415  MEMB      21              0.0000000000
      2878        27  POPC      H10X           12.1033865385       25.1235034252       47.3799229711  MEMB      21              0.0000000000
      2879        27  POPC      H10Y           13.3259741609       26.3139090780       46.8777543337  MEMB      21              0.0000000000
      2880        27  POPC      C311           11.5371475073       26.2632345889       45.6553407419  MEMB      21              0.0000000000
      2881        27  POPC      H11X           11.5951749970       27.2978788041       45.2680332494  MEMB      21              0.0000000000
      2882        27  POPC      H11Y           10.4602856811       26.0401023838       45.7938184505  MEMB      21              0.0000000000
      2883        27  POPC      C312           12.1464933392       25.2752204756       44.6390653841  MEMB      21              0.0000000000
      2884        27  POPC      H12X           11.5927496253       24.3150164221       44.7492178323  MEMB      21              0.0000000000
      2885        27  POPC      H12Y           13.2006977247       25.0685964407       44.9166485092  MEMB      21              0.0000000000
      2886        27  POPC      C313           12.0814964293       25.7130003322       43.1611677935  MEMB      21              0.0000000000
      2887        27  POPC      H13X           11.2092661070       26.3855248157       43.0239108593  MEMB      21              0.0000000000
      2888        27  POPC      H13Y           11.9089875921       24.8117854295       42.5320637465  MEMB      21              0.0000000000
      2889        27  POPC      C314           13.3266199623       26.4275858299       42.5989321118  MEMB      21              0.0000000000
      2890        27  POPC      H14X           13.5259854015       27.3356401683       43.1944949434  MEMB      21              0.0000000000
      2891        27  POPC      H14Y           13.0924484095       26.7671387002       41.5648725617  MEMB      21              0.0000000000
      2892        27  POPC      C315           14.6044810757       25.5792613772       42.5445885367  MEMB      21              0.0000000000
      2893        27  POPC      H15X           14.4493402570       24.7459825895       41.8244492669  MEMB      21              0.0000000000
      2894        27  POPC      H15Y           14.7934650405       25.1252502318       43.5413165865  MEMB      21              0.0000000000
      2895        27  POPC      C316           15.8494374840       26.3785418482       42.1463253640  MEMB      21              0.0000000000
      2896        27  POPC      H16X           16.7478216855       25.7245444343       42.1644394436  MEMB      21              0.0000000000
      2897        27  POPC      H16Y           16.0161946300       27.2184544957       42.8548893687  MEMB      21              0.0000000000
      2898        27  POPC      H16Z           15.7407335358       26.7997931629       41.1245399707  MEMB      21              0.0000000000
      2899        28  POPC      N              29.4103722018       10.3365881823       63.5519872787  MEMB      22              0.0000000000
      2900        28  POPC      C12            30.2918908082       11.5722548888       63.5983873581  MEMB      22              0.0000000000
      2901        28  POPC      H12A           30.2147352578       12.1157249049       62.6654881794  MEMB      22              0.0000000000
      2902        28  POPC      H12B           31.3451153453       11.2829700532       63.6410191350  MEMB      22              0.0000000000
      2903        28  POPC      C13            27.9901723991       10.7980248983       63.4967194550  MEMB      22              0.0000000000
      2904        28  POPC      H13A           27.7743979450       11.3294567646       62.5760587889  MEMB      22              0.0000000000
      2905        28  POPC      H13B           27.3084945162        9.9609367785       63.5817081683  MEMB      22              0.0000000000
      2906        28  POPC      H13C           27.8156464476       11.4829924299       64.3174011604  MEMB      22              0.0000000000
      2907        28  POPC      C14            29.6936674921        9.5042644233       62.3433626320  MEMB      22              0.0000000000
      2908        28  POPC      H14A           30.6997654810        9.0991081010       62.3743842556  MEMB      22              0.0000000000
      2909        28  POPC      H14B           28.9934039077        8.6918575446       62.2428552259  MEMB      22              0.0000000000
      2910        28  POPC      H14C           29.6741645076       10.0973915471       61.4264205843  MEMB      22              0.0000000000
      2911        28  POPC      C15            29.6235136076        9.5305873535       64.7923962114  MEMB      22              0.0000000000
      2912        28  POPC      H15A           29.6006137904       10.2009987155       65.6515825018  MEMB      22              0.0000000000
      2913        28  POPC      H15B           30.5895504522        9.0383680184       64.8125210320  MEMB      22              0.0000000000
      2914        28  POPC      H15C           28.8623265995        8.7826862863       64.9247535617  MEMB      22              0.0000000000
      2915        28  POPC      C11            30.0778484657       12.5644603497       64.7808969701  MEMB      22              0.0000000000
      2916        28  POPC      H11A           28.9997726628       12.8166202175       64.8778892410  MEMB      22              0.0000000000
      2917        28  POPC      H11B           30.5879808865       13.5224589229       64.5014499656  MEMB      22              0.0000000000
      2918        28  POPC      P              32.1242779956       12.2311550728       66.3479992955  MEMB      22              0.0000000000
      2919        28  POPC      O13            32.5640582157       11.1794359713       67.2947740295  MEMB      22              0.0000000000
      2920        28  POPC      O14            32.3668327390       13.6536289036       66.6568755796  MEMB      22              0.0000000000
      2921        28  POPC      O12            30.5609329006       12.0445319524       66.0376755337  MEMB      22              0.0000000000
      2922        28  POPC      O11            32.6850650372       11.9115448829       64.9181459480  MEMB      22              0.0000000000
      2923        28  POPC      C1             33.3860144493       10.7237555907       64.5800447700  MEMB      22              0.0000000000
      2924        28  POPC      HA             32.8132080595        9.8239933909       64.9028477341  MEMB      22              0.0000000000
      2925        28  POPC      HB             34.3743172320       10.6967078031       65.0956686346  MEMB      22              0.0000000000
      2926        28  POPC      C2             33.6312311023       10.6589150919       63.0408792826  MEMB      22              0.0000000000
      2927        28  POPC      HS             34.7171106582       10.8129970497       62.8680665328  MEMB      22              0.0000000000
      2928        28  POPC      O21            32.8235424484       11.6366147113       62.3489583285  MEMB      22              0.0000000000
      2929        28  POPC      C21            33.5017181156       12.6522464149       61.8161871458  MEMB      22              0.0000000000
      2930        28  POPC      O22            34.6885462641       12.8612297274       61.9409595581  MEMB      22              0.0000000000
      2931        28  POPC      C22            32.5583675738       13.4856834145       60.9345041454  MEMB      22              0.0000000000
      2932        28  POPC      H2R            32.0819119015       14.2414672691       61.5898779095  MEMB      22              0.0000000000
      2933        28  POPC      H2S            31.7763381496       12.8087140743       60.5312904203  MEMB      22              0.0000000000
      2934        28  POPC      C3             33.3133127898        9.2456307756       62.4708355840  MEMB      22              0.0000000000
      2935        28  POPC      HX             32.2755878826        8.9566187816       62.6972760274  MEMB      22              0.0000000000
      2936        28  POPC      HY             33.9655402343        8.5365907882       63.0337262370  MEMB      22              0.0000000000
      2937        28  POPC      O31            33.6041121824        9.1233563828       61.0631945025  MEMB      22              0.0000000000
      2938        28  POPC      C31            32.8350047941        9.7536475897       60.1715965823  MEMB      22              0.0000000000
      2939        28  POPC      O32            31.7046078725       10.1634376691       60.3691643683  MEMB      22              0.0000000000
      2940        28  POPC      C32            33.5958593146        9.8432520438       58.8421327032  MEMB      22              0.0000000000
      2941        28  POPC      H2X            34.0267224168        8.8507291999       58.6259047429  MEMB      22              0.0000000000
      2942        28  POPC      H2Y            34.4448053491       10.5405419421       59.0156359847  MEMB      22              0.0000000000
      2943        28  POPC      C23            33.2903113487       14.1823648996       59.7538293068  MEMB      22              0.0000000000
      2944        28  POPC      H3R            33.7352476207       13.4190109517       59.0764240229  MEMB      22              0.0000000000
      2945        28  POPC      H3S            34.1291532480       14.7981856969       60.1530442098  MEMB      22              0.0000000000
      2946        28  POPC      C24            32.3538505184       15.0784773543       58.9345077029  MEMB      22              0.0000000000
      2947        28  POPC      H4R            31.8983123936       15.8137719335       59.6362067908  MEMB      22              0.0000000000
      2948        28  POPC      H4S            31.5370765145       14.4592753141       58.5056365327  MEMB      22              0.0000000000
      2949        28  POPC      C25            33.0130666360       15.8675116573       57.7901362300  MEMB      22              0.0000000000
      2950        28  POPC      H5R            34.0562777471       16.1539425573       58.0403062514  MEMB      22              0.0000000000
      2951        28  POPC      H5S            32.4318957157       16.8158219519       57.6862447570  MEMB      22              0.0000000000
      2952        28  POPC      C26            32.9537096312       15.1628552215       56.4234984430  MEMB      22              0.0000000000
      2953        28  POPC      H6R            32.0743711369       14.4803623398       56.3953236762  MEMB      22              0.0000000000
      2954        28  POPC      H6S            33.8598217936       14.5345739540       56.2789385057  MEMB      22              0.0000000000
      2955        28  POPC      C27            32.7892915537       16.1610054535       55.2587281167  MEMB      22              0.0000000000
      2956        28  POPC      H7R            33.7032231574       16.7900522499       55.1791267674  MEMB      22              0.0000000000
      2957        28  POPC      H7S            31.9398780878       16.8414384980       55.4965318716  MEMB      22              0.0000000000
      2958        28  POPC      C28            32.4770361018       15.4995630020       53.9024627499  MEMB      22              0.0000000000
      2959        28  POPC      H8R            32.2886102734       16.2939866019       53.1469370063  MEMB      22              0.0000000000
      2960        28  POPC      H8S            31.5368031738       14.9161276453       53.9888898836  MEMB      22              0.0000000000
      2961        28  POPC      C29            33.6332667989       14.6486438765       53.4618753142  MEMB      22              0.0000000000
      2962        28  POPC      H91            34.5761614826       15.2020712710       53.3729137349  MEMB      22              0.0000000000
      2963        28  POPC      C210           33.6049835275       13.3469001003       53.1340670812  MEMB      22              0.0000000000
      2964        28  POPC      H101           34.5373181342       12.8494404739       52.8227331430  MEMB      22              0.0000000000
      2965        28  POPC      C211           32.3835474828       12.4685800011       53.1377289011  MEMB      22              0.0000000000
      2966        28  POPC      H11R           31.6987145188       12.7222173525       53.9783404340  MEMB      22              0.0000000000
      2967        28  POPC      H11S           32.6762874383       11.4042974495       53.2600148352  MEMB      22              0.0000000000
      2968        28  POPC      C212           31.6260049255       12.6336295893       51.8091969670  MEMB      22              0.0000000000
      2969        28  POPC      H12R           31.3720115473       13.7078507873       51.6610125453  MEMB      22              0.0000000000
      2970        28  POPC      H12S           30.6603805805       12.0843580717       51.8616233377  MEMB      22              0.0000000000
      2971        28  POPC      C213           32.4132361056       12.1211774656       50.5939591799  MEMB      22              0.0000000000
      2972        28  POPC      H13R           32.4294667691       11.0099423618       50.6310517557  MEMB      22              0.0000000000
      2973        28  POPC      H13S           33.4722207849       12.4559333072       50.6307006506  MEMB      22              0.0000000000
      2974        28  POPC      C214           31.8088593691       12.5959916336       49.2683370339  MEMB      22              0.0000000000
      2975        28  POPC      H14R           30.7009661232       12.5412955028       49.3267663989  MEMB      22              0.0000000000
      2976        28  POPC      H14S           32.1378697587       11.9024543338       48.4634260568  MEMB      22              0.0000000000
      2977        28  POPC      C215           32.2676516260       14.0145167787       48.8974156067  MEMB      22              0.0000000000
      2978        28  POPC      H15R           33.3747063122       13.9844048664       48.7683087809  MEMB      22              0.0000000000
      2979        28  POPC      H15S           32.0482200492       14.7220487868       49.7272790597  MEMB      22              0.0000000000
      2980        28  POPC      C216           31.6372935779       14.5371347986       47.6002110181  MEMB      22              0.0000000000
      2981        28  POPC      H16R           31.6439751290       13.7313028798       46.8340451685  MEMB      22              0.0000000000
      2982        28  POPC      H16S           32.2560790437       15.3781125917       47.2098771244  MEMB      22              0.0000000000
      2983        28  POPC      C217           30.2006277819       15.0396351170       47.7810880313  MEMB      22              0.0000000000
      2984        28  POPC      H17R           30.1972746425       15.8826222270       48.5107131237  MEMB      22              0.0000000000
      2985        28  POPC      H17S           29.5773616356       14.2225360807       48.2119919654  MEMB      22              0.0000000000
      2986        28  POPC      C218           29.5808777967       15.5004214123       46.4611149988  MEMB      22              0.0000000000
      2987        28  POPC      H18R           29.5623066845       14.6619559737       45.7313052808  MEMB      22              0.0000000000
      2988        28  POPC      H18S           30.1758753812       16.3283910609       46.0182510286  MEMB      22              0.0000000000
      2989        28  POPC      H18T           28.5408205566       15.8569935387       46.6197622110  MEMB      22              0.0000000000
      2990        28  POPC      C33            32.7988953694       10.3538580534       57.6119744818  MEMB      22              0.0000000000
      2991        28  POPC      H3X            33.5592142140       10.8009499524       56.9236159399  MEMB      22              0.0000000000
      2992        28  POPC      H3Y            32.0997863809       11.1719860215       57.8859858284  MEMB      22              0.0000000000
      2993        28  POPC      C34            32.0800307220        9.2535231704       56.8057570828  MEMB      22              0.0000000000
      2994        28  POPC      H4X            31.1201713811        8.9901750906       57.2999606573  MEMB      22              0.0000000000
      2995        28  POPC      H4Y            32.7166604881        8.3388726869       56.7939961914  MEMB      22              0.0000000000
      2996        28  POPC      C35            31.8433414483        9.6846161747       55.3450848072  MEMB      22              0.0000000000
      2997        28  POPC      H5X            32.8392794652        9.8521679432       54.8738447041  MEMB      22              0.0000000000
      2998        28  POPC      H5Y            31.2964543690       10.6540260660       55.3319902997  MEMB      22              0.0000000000
      2999        28  POPC      C36            31.0728696182        8.6708522059       54.4803689258  MEMB      22              0.0000000000
      3000        28  POPC      H6X            30.0488804187        8.5431380168       54.8971693009  MEMB      22              0.0000000000
      3001        28  POPC      H6Y            31.5868050754        7.6840543152       54.5339008900  MEMB      22              0.0000000000
      3002        28  POPC      C37            30.9784702639        9.0994170356       52.9984655513  MEMB      22              0.0000000000
      3003        28  POPC      H7X            32.0076858528        9.1086959310       52.5726299961  MEMB      22              0.0000000000
      3004        28  POPC      H7Y            30.5792944374       10.1343312708       52.9334757804  MEMB      22              0.0000000000
      3005        28  POPC      C38            30.0876659046        8.1729776313       52.1536221560  MEMB      22              0.0000000000
      3006        28  POPC      H8X            29.0313371193        8.5152358933       52.1836549173  MEMB      22              0.0000000000
      3007        28  POPC      H8Y            30.1175719787        7.1657581781       52.6347438190  MEMB      22              0.0000000000
      3008        28  POPC      C39            30.5413614841        7.9731470067       50.6945906370  MEMB      22              0.0000000000
      3009        28  POPC      H9X            30.0605909797        7.0334104046       50.3344970632  MEMB      22              0.0000000000
      3010        28  POPC      H9Y            31.6378192781        7.7995549473       50.6666950545  MEMB      22              0.0000000000
      3011        28  POPC      C310           30.1608610201        9.0676034525       49.6808886245  MEMB      22              0.0000000000
      3012        28  POPC      H10X           30.7094776277       10.0033952288       49.8987615739  MEMB      22              0.0000000000
      3013        28  POPC      H10Y           29.0739217095        9.2843392505       49.7616847436  MEMB      22              0.0000000000
      3014        28  POPC      C311           30.4774454504        8.5890756979       48.2512645477  MEMB      22              0.0000000000
      3015        28  POPC      H11X           29.8834411517        7.6752297422       48.0543280445  MEMB      22              0.0000000000
      3016        28  POPC      H11Y           31.5418750444        8.2770035234       48.2044377573  MEMB      22              0.0000000000
      3017        28  POPC      C312           30.1854291224        9.5783265253       47.1120759905  MEMB      22              0.0000000000
      3018        28  POPC      H12X           30.9343442267       10.3911935187       47.1510153119  MEMB      22              0.0000000000
      3019        28  POPC      H12Y           29.1913369929       10.0537319732       47.2615145996  MEMB      22              0.0000000000
      3020        28  POPC      C313           30.2055504442        8.8728208234       45.7400547555  MEMB      22              0.0000000000
      3021        28  POPC      H13X           29.1702206371        8.5313709427       45.5108630907  MEMB      22              0.0000000000
      3022        28  POPC      H13Y           30.8428586186        7.9630794005       45.8113874549  MEMB      22              0.0000000000
      3023        28  POPC      C314           30.7504666014        9.6815178755       44.5490522322  MEMB      22              0.0000000000
      3024        28  POPC      H14X           30.4750534990        9.1334051833       43.6177825074  MEMB      22              0.0000000000
      3025        28  POPC      H14Y           31.8617977403        9.6973370941       44.5868064057  MEMB      22              0.0000000000
      3026        28  POPC      C315           30.2297329429       11.1184718614       44.4598922249  MEMB      22              0.0000000000
      3027        28  POPC      H15X           30.9479298760       11.8052184476       44.9608437837  MEMB      22              0.0000000000
      3028        28  POPC      H15Y           29.2829950501       11.1909279781       45.0343202894  MEMB      22              0.0000000000
      3029        28  POPC      C316           29.9905678705       11.5953913329       43.0267766539  MEMB      22              0.0000000000
      3030        28  POPC      H16X           30.8857421169       11.4243395181       42.3929708517  MEMB      22              0.0000000000
      3031        28  POPC      H16Y           29.7611213436       12.6803665746       43.0248098327  MEMB      22              0.0000000000
      3032        28  POPC      H16Z           29.1289570585       11.0632113065       42.5746543992  MEMB      22              0.0000000000
      3033        29  POPC      N              49.8964371708       20.4343486650       65.5180760772  MEMB      23              0.0000000000
      3034        29  POPC      C12            50.4352494875       20.4583371304       64.0970215452  MEMB      23              0.0000000000
      3035        29  POPC      H12A           49.6311936910       20.6341961248       63.4030939356  MEMB      23              0.0000000000
      3036        29  POPC      H12B           50.8264069281       19.4620427523       63.8566853045  MEMB      23              0.0000000000
      3037        29  POPC      C13            48.4848971056       19.9259642862       65.5551829674  MEMB      23              0.0000000000
      3038        29  POPC      H13A           47.7734601234       20.5324713337       65.0190900347  MEMB      23              0.0000000000
      3039        29  POPC      H13B           48.4268802084       18.9033484833       65.1921158537  MEMB      23              0.0000000000
      3040        29  POPC      H13C           48.1422751298       19.8298169642       66.5891992018  MEMB      23              0.0000000000
      3041        29  POPC      C14            50.7520548535       19.5092232296       66.3405795248  MEMB      23              0.0000000000
      3042        29  POPC      H14A           51.8115708342       19.7795370122       66.2558729346  MEMB      23              0.0000000000
      3043        29  POPC      H14B           50.4774987105       19.5387711180       67.3941189665  MEMB      23              0.0000000000
      3044        29  POPC      H14C           50.6540666144       18.4861327864       65.9958999870  MEMB      23              0.0000000000
      3045        29  POPC      C15            50.0460989492       21.7662208663       66.1628852136  MEMB      23              0.0000000000
      3046        29  POPC      H15A           51.1127143570       22.0181909794       66.1783336670  MEMB      23              0.0000000000
      3047        29  POPC      H15B           49.7085056597       21.7267277878       67.1913097653  MEMB      23              0.0000000000
      3048        29  POPC      H15C           49.5370379463       22.5315757595       65.6102940081  MEMB      23              0.0000000000
      3049        29  POPC      C11            51.5973064680       21.4267715228       63.7791657910  MEMB      23              0.0000000000
      3050        29  POPC      H11A           51.2710356520       22.4824299947       63.9082476491  MEMB      23              0.0000000000
      3051        29  POPC      H11B           51.8788095469       21.3256529101       62.7024498620  MEMB      23              0.0000000000
      3052        29  POPC      P              53.7011212852       19.9753096453       64.3350815137  MEMB      23              0.0000000000
      3053        29  POPC      O13            54.0147279439       19.4911046414       65.7013069156  MEMB      23              0.0000000000
      3054        29  POPC      O14            54.7369805998       20.4994718118       63.4296068542  MEMB      23              0.0000000000
      3055        29  POPC      O12            52.7073069611       21.1687688068       64.6322738869  MEMB      23              0.0000000000
      3056        29  POPC      O11            52.7426548813       18.9603315264       63.5738086679  MEMB      23              0.0000000000
      3057        29  POPC      C1             52.6721578105       17.6212897542       64.0796704260  MEMB      23              0.0000000000
      3058        29  POPC      HA             52.2496846140       17.5950932229       65.1066371987  MEMB      23              0.0000000000
      3059        29  POPC      HB             53.6995578218       17.1783446257       64.1469926705  MEMB      23              0.0000000000
      3060        29  POPC      C2             51.8192253937       16.7007666559       63.1603648565  MEMB      23              0.0000000000
      3061        29  POPC      HS             51.9819349051       15.6425722943       63.4924544914  MEMB      23              0.0000000000
      3062        29  POPC      O21            52.2015136133       16.9195467604       61.7758780240  MEMB      23              0.0000000000
      3063        29  POPC      C21            53.3932857547       16.3476636297       61.5390682511  MEMB      23              0.0000000000
      3064        29  POPC      O22            53.8817849304       15.4817051705       62.2398273261  MEMB      23              0.0000000000
      3065        29  POPC      C22            53.8651416720       16.6672866262       60.1176621161  MEMB      23              0.0000000000
      3066        29  POPC      H2R            52.9849403124       16.7428694528       59.4642760017  MEMB      23              0.0000000000
      3067        29  POPC      H2S            54.4491472879       15.7757165489       59.7982540993  MEMB      23              0.0000000000
      3068        29  POPC      C3             50.2741272391       16.9108198611       63.3392496710  MEMB      23              0.0000000000
      3069        29  POPC      HX             50.0721687208       16.9966591803       64.4280403745  MEMB      23              0.0000000000
      3070        29  POPC      HY             49.8135629585       15.9486064426       63.0055383566  MEMB      23              0.0000000000
      3071        29  POPC      O31            49.7335370969       18.0732484451       62.6624805724  MEMB      23              0.0000000000
      3072        29  POPC      C31            48.6091122334       17.8394690825       61.9857499210  MEMB      23              0.0000000000
      3073        29  POPC      O32            47.9727179346       16.8047277741       62.0043423647  MEMB      23              0.0000000000
      3074        29  POPC      C32            48.2581740531       19.0720493928       61.1663098173  MEMB      23              0.0000000000
      3075        29  POPC      H2X            48.5861859236       19.9649905113       61.7344679846  MEMB      23              0.0000000000
      3076        29  POPC      H2Y            47.1549981369       19.0947008210       61.0679686104  MEMB      23              0.0000000000
      3077        29  POPC      C23            54.7782392967       17.9019186922       59.9193420340  MEMB      23              0.0000000000
      3078        29  POPC      H3R            55.1526381062       17.8715962600       58.8706204048  MEMB      23              0.0000000000
      3079        29  POPC      H3S            55.6669050031       17.8313914082       60.5838121143  MEMB      23              0.0000000000
      3080        29  POPC      C24            54.1255192632       19.2740685835       60.1286374327  MEMB      23              0.0000000000
      3081        29  POPC      H4R            54.8455911921       20.0607885779       59.8111245856  MEMB      23              0.0000000000
      3082        29  POPC      H4S            53.9816440176       19.4062286827       61.2257755632  MEMB      23              0.0000000000
      3083        29  POPC      C25            52.7644416416       19.4998960880       59.4494116972  MEMB      23              0.0000000000
      3084        29  POPC      H5R            52.4751204115       20.5635375302       59.6069515616  MEMB      23              0.0000000000
      3085        29  POPC      H5S            52.0220846830       18.8737247671       59.9889137233  MEMB      23              0.0000000000
      3086        29  POPC      C26            52.6725647491       19.1878989717       57.9459742809  MEMB      23              0.0000000000
      3087        29  POPC      H6R            51.6561680875       19.4950454386       57.6170126854  MEMB      23              0.0000000000
      3088        29  POPC      H6S            52.7533138687       18.0926768235       57.7748475717  MEMB      23              0.0000000000
      3089        29  POPC      C27            53.7065873299       19.9020336188       57.0598294423  MEMB      23              0.0000000000
      3090        29  POPC      H7R            54.6338108897       19.2908429963       57.0430241512  MEMB      23              0.0000000000
      3091        29  POPC      H7S            53.9630726378       20.8814387863       57.5214828197  MEMB      23              0.0000000000
      3092        29  POPC      C28            53.2180463440       20.1642998046       55.6156428432  MEMB      23              0.0000000000
      3093        29  POPC      H8R            54.0581464869       20.6087382620       55.0371804824  MEMB      23              0.0000000000
      3094        29  POPC      H8S            52.4195220545       20.9376436452       55.6700650489  MEMB      23              0.0000000000
      3095        29  POPC      C29            52.6645095723       18.9301418537       54.9472363205  MEMB      23              0.0000000000
      3096        29  POPC      H91            51.9196636393       18.3895615889       55.5483033866  MEMB      23              0.0000000000
      3097        29  POPC      C210           52.9456024837       18.4497480160       53.7242711975  MEMB      23              0.0000000000
      3098        29  POPC      H101           52.4264890215       17.5331189773       53.4090294056  MEMB      23              0.0000000000
      3099        29  POPC      C211           53.8910303956       19.0259254044       52.6976597411  MEMB      23              0.0000000000
      3100        29  POPC      H11R           54.8797283621       18.5173717009       52.7573721970  MEMB      23              0.0000000000
      3101        29  POPC      H11S           54.0716919492       20.1090364517       52.8748538307  MEMB      23              0.0000000000
      3102        29  POPC      C212           53.3554884718       18.8584852511       51.2591785602  MEMB      23              0.0000000000
      3103        29  POPC      H12R           54.0263889533       19.4067462427       50.5594315604  MEMB      23              0.0000000000
      3104        29  POPC      H12S           52.3466299618       19.3180372779       51.1735373746  MEMB      23              0.0000000000
      3105        29  POPC      C213           53.2876310585       17.3934959452       50.7997365058  MEMB      23              0.0000000000
      3106        29  POPC      H13R           52.6291612503       16.8138276593       51.4831290425  MEMB      23              0.0000000000
      3107        29  POPC      H13S           54.3018012444       16.9449486047       50.8649442714  MEMB      23              0.0000000000
      3108        29  POPC      C214           52.7407751429       17.2303567520       49.3767149727  MEMB      23              0.0000000000
      3109        29  POPC      H14R           52.3069287404       18.1913169581       49.0212056591  MEMB      23              0.0000000000
      3110        29  POPC      H14S           51.9041803193       16.5011020239       49.4185457551  MEMB      23              0.0000000000
      3111        29  POPC      C215           53.7985491191       16.7427647274       48.3768104024  MEMB      23              0.0000000000
      3112        29  POPC      H15R           54.3314623954       15.8506822372       48.7750543845  MEMB      23              0.0000000000
      3113        29  POPC      H15S           54.5553768713       17.5529381997       48.2608571612  MEMB      23              0.0000000000
      3114        29  POPC      C216           53.2071656957       16.4093692133       46.9989994137  MEMB      23              0.0000000000
      3115        29  POPC      H16R           53.9707067161       16.6510504604       46.2247172610  MEMB      23              0.0000000000
      3116        29  POPC      H16S           52.3265019626       17.0631324228       46.8081076101  MEMB      23              0.0000000000
      3117        29  POPC      C217           52.8101758251       14.9326010328       46.8140985265  MEMB      23              0.0000000000
      3118        29  POPC      H17R           53.7325293736       14.3097542531       46.8520147489  MEMB      23              0.0000000000
      3119        29  POPC      H17S           52.3736172666       14.8209904927       45.7957781880  MEMB      23              0.0000000000
      3120        29  POPC      C218           51.8061659120       14.3801253805       47.8281793537  MEMB      23              0.0000000000
      3121        29  POPC      H18R           52.2638945503       14.3087530406       48.8375834616  MEMB      23              0.0000000000
      3122        29  POPC      H18S           51.4668953300       13.3668684253       47.5300484405  MEMB      23              0.0000000000
      3123        29  POPC      H18T           50.9176947297       15.0422570466       47.8842527464  MEMB      23              0.0000000000
      3124        29  POPC      C33            48.9062625713       19.0720644293       59.7624731194  MEMB      23              0.0000000000
      3125        29  POPC      H3X            48.3273660982       18.4038438300       59.0847305495  MEMB      23              0.0000000000
      3126        29  POPC      H3Y            49.9398942880       18.6656789860       59.8172107956  MEMB      23              0.0000000000
      3127        29  POPC      C34            48.9990170982       20.4897006752       59.1751467908  MEMB      23              0.0000000000
      3128        29  POPC      H4X            50.0632917923       20.8092075998       59.1243239993  MEMB      23              0.0000000000
      3129        29  POPC      H4Y            48.4853773741       21.1957672793       59.8647673951  MEMB      23              0.0000000000
      3130        29  POPC      C35            48.3430242432       20.6242316240       57.7964160800  MEMB      23              0.0000000000
      3131        29  POPC      H5X            48.1124683032       21.6994275322       57.6102577570  MEMB      23              0.0000000000
      3132        29  POPC      H5Y            47.3848127892       20.0650675599       57.7968051029  MEMB      23              0.0000000000
      3133        29  POPC      C36            49.2071681068       20.1287450405       56.6360384571  MEMB      23              0.0000000000
      3134        29  POPC      H6X            49.4579324708       19.0545173580       56.7732764491  MEMB      23              0.0000000000
      3135        29  POPC      H6Y            50.1560247822       20.7114943333       56.6295983463  MEMB      23              0.0000000000
      3136        29  POPC      C37            48.5049039795       20.3239122339       55.2884747620  MEMB      23              0.0000000000
      3137        29  POPC      H7X            48.1779077619       21.3851865959       55.2066033525  MEMB      23              0.0000000000
      3138        29  POPC      H7Y            47.5915731992       19.6895026067       55.2502067416  MEMB      23              0.0000000000
      3139        29  POPC      C38            49.4083927932       19.9944997718       54.0977166253  MEMB      23              0.0000000000
      3140        29  POPC      H8X            49.7010157772       18.9219143817       54.1383692461  MEMB      23              0.0000000000
      3141        29  POPC      H8Y            50.3374494314       20.6053586091       54.1670699837  MEMB      23              0.0000000000
      3142        29  POPC      C39            48.7200183032       20.2911022174       52.7641100653  MEMB      23              0.0000000000
      3143        29  POPC      H9X            48.3820417138       21.3512589686       52.7638327396  MEMB      23              0.0000000000
      3144        29  POPC      H9Y            47.8180927934       19.6473321132       52.6676230014  MEMB      23              0.0000000000
      3145        29  POPC      C310           49.6366291151       20.0700300266       51.5580983388  MEMB      23              0.0000000000
      3146        29  POPC      H10X           49.9359094482       18.9984524596       51.5167062524  MEMB      23              0.0000000000
      3147        29  POPC      H10Y           50.5606373206       20.6775114990       51.6815172673  MEMB      23              0.0000000000
      3148        29  POPC      C311           48.9482989155       20.4543825138       50.2461766843  MEMB      23              0.0000000000
      3149        29  POPC      H11X           48.6515656726       21.5270646161       50.2796341292  MEMB      23              0.0000000000
      3150        29  POPC      H11Y           48.0210779878       19.8470224870       50.1486488849  MEMB      23              0.0000000000
      3151        29  POPC      C312           49.8258146128       20.2086013314       49.0171718912  MEMB      23              0.0000000000
      3152        29  POPC      H12X           50.1502812870       19.1427606312       49.0169416786  MEMB      23              0.0000000000
      3153        29  POPC      H12Y           50.7383766208       20.8427126066       49.0737208273  MEMB      23              0.0000000000
      3154        29  POPC      C313           49.0762451799       20.4949467661       47.7129790209  MEMB      23              0.0000000000
      3155        29  POPC      H13X           48.6881347488       21.5377510423       47.7134536380  MEMB      23              0.0000000000
      3156        29  POPC      H13Y           48.1898934214       19.8262998206       47.6634002050  MEMB      23              0.0000000000
      3157        29  POPC      C314           49.9462151584       20.2779834136       46.4693940763  MEMB      23              0.0000000000
      3158        29  POPC      H14X           50.8000068023       19.6037402925       46.7061709811  MEMB      23              0.0000000000
      3159        29  POPC      H14Y           50.3666956460       21.2625671428       46.1678573030  MEMB      23              0.0000000000
      3160        29  POPC      C315           49.1599464862       19.6719876640       45.3022680073  MEMB      23              0.0000000000
      3161        29  POPC      H15X           48.1600262709       20.1526060316       45.2701998089  MEMB      23              0.0000000000
      3162        29  POPC      H15Y           48.9978420051       18.5880449435       45.4839828884  MEMB      23              0.0000000000
      3163        29  POPC      C316           49.8494637127       19.8403111296       43.9530590665  MEMB      23              0.0000000000
      3164        29  POPC      H16X           49.9022179364       20.9140742617       43.6727861779  MEMB      23              0.0000000000
      3165        29  POPC      H16Y           49.3013461597       19.2923125593       43.1564673401  MEMB      23              0.0000000000
      3166        29  POPC      H16Z           50.8853790811       19.4483182479       44.0049642601  MEMB      23              0.0000000000
      3167        30  POPC      N              23.9931334979       14.2287691908       65.6674547899  MEMB      24              0.0000000000
      3168        30  POPC      C12            22.8975360834       14.8545198260       64.7973900613  MEMB      24              0.0000000000
      3169        30  POPC      H12A           23.3439661905       15.4827857181       64.0394302192  MEMB      24              0.0000000000
      3170        30  POPC      H12B           22.2515727588       15.4973819163       65.3982370424  MEMB      24              0.0000000000
      3171        30  POPC      C13            23.4019743242       13.2301174419       66.6100036899  MEMB      24              0.0000000000
      3172        30  POPC      H13A           24.1251133046       12.8666628671       67.3256313861  MEMB      24              0.0000000000
      3173        30  POPC      H13B           22.5578380672       13.6535081506       67.1464181830  MEMB      24              0.0000000000
      3174        30  POPC      H13C           22.9904241610       12.4089934876       66.0392335658  MEMB      24              0.0000000000
      3175        30  POPC      C14            24.9833068882       13.5458601559       64.7806277860  MEMB      24              0.0000000000
      3176        30  POPC      H14A           24.4765252684       12.8375776098       64.1349728053  MEMB      24              0.0000000000
      3177        30  POPC      H14B           25.5148270209       14.2625366366       64.1499352265  MEMB      24              0.0000000000
      3178        30  POPC      H14C           25.7412549143       13.0435685267       65.3642521004  MEMB      24              0.0000000000
      3179        30  POPC      C15            24.7225335993       15.2308184368       66.4973563340  MEMB      24              0.0000000000
      3180        30  POPC      H15A           25.4925628091       14.7675893485       67.1056656767  MEMB      24              0.0000000000
      3181        30  POPC      H15B           24.0698459482       15.8040767989       67.1646165570  MEMB      24              0.0000000000
      3182        30  POPC      H15C           25.2200928862       15.9729325617       65.8892001223  MEMB      24              0.0000000000
      3183        30  POPC      C11            21.9334356325       13.9214624246       64.0501256670  MEMB      24              0.0000000000
      3184        30  POPC      H11A           22.4752497562       13.0647149958       63.5909286704  MEMB      24              0.0000000000
      3185        30  POPC      H11B           21.4522796308       14.4946710652       63.2213770951  MEMB      24              0.0000000000
      3186        30  POPC      P              20.3126343041       12.1243828614       65.1393245426  MEMB      24              0.0000000000
      3187        30  POPC      O13            18.8814050726       12.1212679671       64.7925404154  MEMB      24              0.0000000000
      3188        30  POPC      O14            20.6529223453       11.6280630315       66.4952211819  MEMB      24              0.0000000000
      3189        30  POPC      O12            20.9356595704       13.5538324469       64.9756219376  MEMB      24              0.0000000000
      3190        30  POPC      O11            21.0827719111       11.2107141610       64.0659211538  MEMB      24              0.0000000000
      3191        30  POPC      C1             22.2468264621       10.4545960854       64.4491839198  MEMB      24              0.0000000000
      3192        30  POPC      HA             21.9222392828        9.6332278765       65.1304155568  MEMB      24              0.0000000000
      3193        30  POPC      HB             22.9759042183       11.0758912304       65.0096879517  MEMB      24              0.0000000000
      3194        30  POPC      C2             23.0749722153        9.7641973738       63.2921572494  MEMB      24              0.0000000000
      3195        30  POPC      HS             23.5940336052        8.9155428042       63.8023155602  MEMB      24              0.0000000000
      3196        30  POPC      O21            24.0305569964       10.6528792280       62.6810371212  MEMB      24              0.0000000000
      3197        30  POPC      C21            25.1125196787       10.0553939240       62.1912886248  MEMB      24              0.0000000000
      3198        30  POPC      O22            25.6263203387        9.0357273326       62.6282664590  MEMB      24              0.0000000000
      3199        30  POPC      C22            25.6504832135       10.8846587949       61.0279751656  MEMB      24              0.0000000000
      3200        30  POPC      H2R            26.6671549522       10.5228135269       60.7772246745  MEMB      24              0.0000000000
      3201        30  POPC      H2S            25.7119506449       11.9462429190       61.3507601424  MEMB      24              0.0000000000
      3202        30  POPC      C3             22.2224324264        9.1493780799       62.1407918099  MEMB      24              0.0000000000
      3203        30  POPC      HX             21.5055169482        8.4918683324       62.6324734965  MEMB      24              0.0000000000
      3204        30  POPC      HY             22.9015317790        8.5245957902       61.5108260776  MEMB      24              0.0000000000
      3205        30  POPC      O31            21.4296372198       10.0766024273       61.3834583548  MEMB      24              0.0000000000
      3206        30  POPC      C31            21.2632033723        9.7876120433       60.0916197173  MEMB      24              0.0000000000
      3207        30  POPC      O32            21.9161757897        8.9893327196       59.4532026287  MEMB      24              0.0000000000
      3208        30  POPC      C32            20.0184969018       10.5210662471       59.6021186791  MEMB      24              0.0000000000
      3209        30  POPC      H2X            19.9694628030       11.4958927998       60.1272899045  MEMB      24              0.0000000000
      3210        30  POPC      H2Y            19.1430492848        9.9092563269       59.9013145453  MEMB      24              0.0000000000
      3211        30  POPC      C23            24.7524300798       10.7765541887       59.7739574328  MEMB      24              0.0000000000
      3212        30  POPC      H3R            23.7576175690       11.2311245516       59.9886792057  MEMB      24              0.0000000000
      3213        30  POPC      H3S            24.5864266856        9.7079228351       59.5040573787  MEMB      24              0.0000000000
      3214        30  POPC      C24            25.3528297567       11.4972043378       58.5615807752  MEMB      24              0.0000000000
      3215        30  POPC      H4R            26.3898984047       11.1344850146       58.3846187733  MEMB      24              0.0000000000
      3216        30  POPC      H4S            25.3989188772       12.5894416681       58.7800057394  MEMB      24              0.0000000000
      3217        30  POPC      C25            24.5334561585       11.3014124027       57.2790621839  MEMB      24              0.0000000000
      3218        30  POPC      H5R            23.4792329565       11.6036181314       57.4742444462  MEMB      24              0.0000000000
      3219        30  POPC      H5S            24.5273770514       10.2249593918       56.9978610000  MEMB      24              0.0000000000
      3220        30  POPC      C26            25.0817070912       12.1438206193       56.1199630589  MEMB      24              0.0000000000
      3221        30  POPC      H6R            26.1258049268       11.8371274276       55.8943998695  MEMB      24              0.0000000000
      3222        30  POPC      H6S            25.0954515715       13.2059086422       56.4511935933  MEMB      24              0.0000000000
      3223        30  POPC      C27            24.2256301081       12.0458000810       54.8520677217  MEMB      24              0.0000000000
      3224        30  POPC      H7R            23.1978486786       12.3808226480       55.1082248370  MEMB      24              0.0000000000
      3225        30  POPC      H7S            24.1590726880       10.9782704899       54.5428491653  MEMB      24              0.0000000000
      3226        30  POPC      C28            24.7435834452       12.8835866074       53.6674198228  MEMB      24              0.0000000000
      3227        30  POPC      H8R            24.0775876077       12.6909641351       52.7950077029  MEMB      24              0.0000000000
      3228        30  POPC      H8S            25.7507781060       12.5121025213       53.3785601354  MEMB      24              0.0000000000
      3229        30  POPC      C29            24.8029160525       14.3648757666       53.9470126170  MEMB      24              0.0000000000
      3230        30  POPC      H91            25.7967471250       14.7477105027       54.2219149879  MEMB      24              0.0000000000
      3231        30  POPC      C210           23.7601980379       15.2147528936       53.9440072708  MEMB      24              0.0000000000
      3232        30  POPC      H101           23.9422548622       16.2797996434       54.1550815850  MEMB      24              0.0000000000
      3233        30  POPC      C211           22.3254873249       14.8467414513       53.6636852368  MEMB      24              0.0000000000
      3234        30  POPC      H11R           21.6822930367       15.2655891054       54.4691079400  MEMB      24              0.0000000000
      3235        30  POPC      H11S           22.1834654806       13.7455373106       53.6979650320  MEMB      24              0.0000000000
      3236        30  POPC      C212           21.7718412352       15.3450116049       52.3151214201  MEMB      24              0.0000000000
      3237        30  POPC      H12R           21.9554677333       16.4377567129       52.2178389993  MEMB      24              0.0000000000
      3238        30  POPC      H12S           20.6683165715       15.1843013410       52.3150821280  MEMB      24              0.0000000000
      3239        30  POPC      C213           22.3490825234       14.6228769842       51.0889843512  MEMB      24              0.0000000000
      3240        30  POPC      H13R           22.2081722343       13.5269183180       51.1976460561  MEMB      24              0.0000000000
      3241        30  POPC      H13S           23.4460163209       14.8093631167       51.0472456231  MEMB      24              0.0000000000
      3242        30  POPC      C214           21.7001925259       15.0992682073       49.7782007394  MEMB      24              0.0000000000
      3243        30  POPC      H14R           21.8473442449       16.1975770454       49.7176482024  MEMB      24              0.0000000000
      3244        30  POPC      H14S           20.6059246389       14.9026511453       49.7949406035  MEMB      24              0.0000000000
      3245        30  POPC      C215           22.3366707479       14.4714528117       48.5293802168  MEMB      24              0.0000000000
      3246        30  POPC      H15R           21.9200909379       13.4550608946       48.3604220999  MEMB      24              0.0000000000
      3247        30  POPC      H15S           23.4230299449       14.3611341038       48.7333892370  MEMB      24              0.0000000000
      3248        30  POPC      C216           22.2009552947       15.3277256059       47.2604049484  MEMB      24              0.0000000000
      3249        30  POPC      H16R           22.7084286869       16.3038471065       47.4271141330  MEMB      24              0.0000000000
      3250        30  POPC      H16S           21.1362509820       15.5513206188       47.0603423021  MEMB      24              0.0000000000
      3251        30  POPC      C217           22.7948004782       14.6499124685       46.0173028672  MEMB      24              0.0000000000
      3252        30  POPC      H17R           22.3379714179       13.6417076644       45.8948746221  MEMB      24              0.0000000000
      3253        30  POPC      H17S           23.8828197354       14.4964949024       46.1882195645  MEMB      24              0.0000000000
      3254        30  POPC      C218           22.5976507235       15.4516146463       44.7276096300  MEMB      24              0.0000000000
      3255        30  POPC      H18R           22.9312727189       16.5018978219       44.8570740559  MEMB      24              0.0000000000
      3256        30  POPC      H18S           21.5272652057       15.4721252511       44.4376484574  MEMB      24              0.0000000000
      3257        30  POPC      H18T           23.1773159845       14.9970926082       43.8967869342  MEMB      24              0.0000000000
      3258        30  POPC      C33            19.9892801241       10.7503986679       58.0768759602  MEMB      24              0.0000000000
      3259        30  POPC      H3X            19.0045471276       10.4252634547       57.6686165244  MEMB      24              0.0000000000
      3260        30  POPC      H3Y            20.7637914846       10.1426468943       57.5560297781  MEMB      24              0.0000000000
      3261        30  POPC      C34            20.1883066174       12.2313912925       57.7375502551  MEMB      24              0.0000000000
      3262        30  POPC      H4X            21.0305896886       12.6332346488       58.3504271538  MEMB      24              0.0000000000
      3263        30  POPC      H4Y            19.2638457460       12.7891695366       57.9994100283  MEMB      24              0.0000000000
      3264        30  POPC      C35            20.5243210910       12.4599239683       56.2600886160  MEMB      24              0.0000000000
      3265        30  POPC      H5X            21.3419786412       11.7514587038       56.0122368028  MEMB      24              0.0000000000
      3266        30  POPC      H5Y            20.9183835920       13.4897766589       56.1121828821  MEMB      24              0.0000000000
      3267        30  POPC      C36            19.3318714336       12.2513942491       55.3156004186  MEMB      24              0.0000000000
      3268        30  POPC      H6X            18.6022332535       13.0786409197       55.4499804050  MEMB      24              0.0000000000
      3269        30  POPC      H6Y            18.8105590539       11.3163419983       55.5964037790  MEMB      24              0.0000000000
      3270        30  POPC      C37            19.7393964470       12.1786810346       53.8365695636  MEMB      24              0.0000000000
      3271        30  POPC      H7X            20.1827656788       13.1508931060       53.5407110488  MEMB      24              0.0000000000
      3272        30  POPC      H7Y            18.8455102682       12.0580048553       53.1966622451  MEMB      24              0.0000000000
      3273        30  POPC      C38            20.7256304440       11.0429790040       53.5365752227  MEMB      24              0.0000000000
      3274        30  POPC      H8X            20.3812355491       10.0961999311       54.0084224072  MEMB      24              0.0000000000
      3275        30  POPC      H8Y            21.7042489532       11.3056232859       53.9895261909  MEMB      24              0.0000000000
      3276        30  POPC      C39            20.9404233254       10.8215867208       52.0394231347  MEMB      24              0.0000000000
      3277        30  POPC      H9X            20.9564870626       11.8106452143       51.5306239065  MEMB      24              0.0000000000
      3278        30  POPC      H9Y            20.0920984841       10.2481615349       51.6248765931  MEMB      24              0.0000000000
      3279        30  POPC      C310           22.2493801871       10.0865529652       51.7399086553  MEMB      24              0.0000000000
      3280        30  POPC      H10X           22.2291840720        9.0672871342       52.1832985185  MEMB      24              0.0000000000
      3281        30  POPC      H10Y           23.0653958516       10.6553035668       52.2379026283  MEMB      24              0.0000000000
      3282        30  POPC      C311           22.5336924184       10.0035816557       50.2364028061  MEMB      24              0.0000000000
      3283        30  POPC      H11X           22.2841071141       10.9845957109       49.7697698612  MEMB      24              0.0000000000
      3284        30  POPC      H11Y           21.8711795539        9.2396658768       49.7726909665  MEMB      24              0.0000000000
      3285        30  POPC      C312           23.9998857533        9.6876217229       49.9093247325  MEMB      24              0.0000000000
      3286        30  POPC      H12X           24.0736919453        9.6266268373       48.8036649060  MEMB      24              0.0000000000
      3287        30  POPC      H12Y           24.2819869054        8.6914006434       50.3142935727  MEMB      24              0.0000000000
      3288        30  POPC      C313           24.9774133133       10.7541046435       50.4373706452  MEMB      24              0.0000000000
      3289        30  POPC      H13X           25.2468018014       10.4956660579       51.4861808846  MEMB      24              0.0000000000
      3290        30  POPC      H13Y           24.4547199080       11.7370352349       50.4736596885  MEMB      24              0.0000000000
      3291        30  POPC      C314           26.2649494453       10.9089455160       49.6079325237  MEMB      24              0.0000000000
      3292        30  POPC      H14X           26.8297318059        9.9494105405       49.6407602495  MEMB      24              0.0000000000
      3293        30  POPC      H14Y           26.8975046758       11.6908264246       50.0865774678  MEMB      24              0.0000000000
      3294        30  POPC      C315           26.0384150441       11.3035632097       48.1368734490  MEMB      24              0.0000000000
      3295        30  POPC      H15X           25.6219121987       10.4336879794       47.5897022635  MEMB      24              0.0000000000
      3296        30  POPC      H15Y           27.0182747659       11.5398836326       47.6631353649  MEMB      24              0.0000000000
      3297        30  POPC      C316           25.0686498748       12.4630905576       47.9228799469  MEMB      24              0.0000000000
      3298        30  POPC      H16X           24.0811176000       12.2376727656       48.3769632841  MEMB      24              0.0000000000
      3299        30  POPC      H16Y           24.8931265269       12.6290972545       46.8403305162  MEMB      24              0.0000000000
      3300        30  POPC      H16Z           25.4657754443       13.3992745785       48.3702190196  MEMB      24              0.0000000000
      3301        31  POPS      N              43.5164078724       15.4435237782       66.4715631260  MEMB      25              0.0000000000
      3302        31  POPS      HN1            42.6563833030       15.8601581390       66.0723822230  MEMB      25              0.0000000000
      3303        31  POPS      HN2            43.5388168832       14.4214904297       66.2919837277  MEMB      25              0.0000000000
      3304        31  POPS      HN3            43.6216858851       15.6566551397       67.4921393219  MEMB      25              0.0000000000
      3305        31  POPS      C12            44.6504851585       16.0563408125       65.7377757328  MEMB      25              0.0000000000
      3306        31  POPS      H12A           45.4620392573       16.2088003534       66.4289228809  MEMB      25              0.0000000000
      3307        31  POPS      C13            44.2298834418       17.4295443492       65.1952728194  MEMB      25              0.0000000000
      3308        31  POPS      O13A           43.0290970231       17.8218554443       65.2489311713  MEMB      25              0.0000000000
      3309        31  POPS      O13B           45.1577394762       18.1120616877       64.7015775126  MEMB      25              0.0000000000
      3310        31  POPS      C11            45.1710923139       15.1121275755       64.6049859883  MEMB      25              0.0000000000
      3311        31  POPS      H11A           46.2825894613       15.0382421812       64.6626649865  MEMB      25              0.0000000000
      3312        31  POPS      H11B           44.9819401437       15.5817673136       63.6162583459  MEMB      25              0.0000000000
      3313        31  POPS      P              45.2526956266       12.5107069128       65.0238478063  MEMB      25              0.0000000000
      3314        31  POPS      O13            44.2217511826       11.5034878418       65.3223098053  MEMB      25              0.0000000000
      3315        31  POPS      O14            46.1708823106       12.8500448240       66.1418046836  MEMB      25              0.0000000000
      3316        31  POPS      O12            44.5181716819       13.8374825714       64.6448376822  MEMB      25              0.0000000000
      3317        31  POPS      O11            46.0122208514       12.1515726745       63.6830164688  MEMB      25              0.0000000000
      3318        31  POPS      C1             45.4172338292       12.5051295221       62.4195747085  MEMB      25              0.0000000000
      3319        31  POPS      HA             45.8765250010       13.4382639583       62.0265856019  MEMB      25              0.0000000000
      3320        31  POPS      HB             44.3255599023       12.7120621166       62.5119332297  MEMB      25              0.0000000000
      3321        31  POPS      C2             45.5485584883       11.3919763108       61.3331095498  MEMB      25              0.0000000000
      3322        31  POPS      HS             45.4907468447       10.4143232919       61.8555983863  MEMB      25              0.0000000000
      3323        31  POPS      O21            46.8157160198       11.5129377007       60.6575224765  MEMB      25              0.0000000000
      3324        31  POPS      C21            46.9401576483       10.9404617187       59.4835471090  MEMB      25              0.0000000000
      3325        31  POPS      O22            46.4942676156        9.8491122202       59.1745049221  MEMB      25              0.0000000000
      3326        31  POPS      C22            47.6497310160       11.9156125362       58.5328534224  MEMB      25              0.0000000000
      3327        31  POPS      H2R            48.6082849581       12.1998694660       58.9966818921  MEMB      25              0.0000000000
      3328        31  POPS      H2S            47.0425540379       12.8436711805       58.4984241026  MEMB      25              0.0000000000
      3329        31  POPS      C3             44.3586003037       11.4985971605       60.3299766899  MEMB      25              0.0000000000
      3330        31  POPS      HX             43.4265325930       11.5508768050       60.9411744597  MEMB      25              0.0000000000
      3331        31  POPS      HY             44.2853881935       10.5878573074       59.6990800415  MEMB      25              0.0000000000
      3332        31  POPS      O31            44.5364045047       12.6704792794       59.5018055776  MEMB      25              0.0000000000
      3333        31  POPS      C31            43.4311398739       13.0662529200       58.9001008024  MEMB      25              0.0000000000
      3334        31  POPS      O32            42.3616236421       12.4810438027       58.9537425316  MEMB      25              0.0000000000
      3335        31  POPS      C32            43.6469868003       14.3849965469       58.1538705024  MEMB      25              0.0000000000
      3336        31  POPS      H2X            44.0323533950       15.1284614777       58.8843008617  MEMB      25              0.0000000000
      3337        31  POPS      H2Y            42.6392704341       14.7087901266       57.8120714161  MEMB      25              0.0000000000
      3338        31  POPS      C23            47.8750724839       11.3705846136       57.1032858503  MEMB      25              0.0000000000
      3339        31  POPS      H3R            47.9083329141       10.2576815175       57.0849067606  MEMB      25              0.0000000000
      3340        31  POPS      H3S            48.8628502031       11.7276493568       56.7301898603  MEMB      25              0.0000000000
      3341        31  POPS      C24            46.8108925890       11.8889973867       56.1315634160  MEMB      25              0.0000000000
      3342        31  POPS      H4R            47.0125564135       12.9666364680       55.9328642153  MEMB      25              0.0000000000
      3343        31  POPS      H4S            45.8095807457       11.8057659337       56.6124517830  MEMB      25              0.0000000000
      3344        31  POPS      C25            46.7746375297       11.1228545696       54.8092930767  MEMB      25              0.0000000000
      3345        31  POPS      H5R            46.3101300452       10.1280814613       54.9930483841  MEMB      25              0.0000000000
      3346        31  POPS      H5S            47.8127169879       10.9561206188       54.4419515446  MEMB      25              0.0000000000
      3347        31  POPS      C26            45.9906232505       11.8616070125       53.7187712865  MEMB      25              0.0000000000
      3348        31  POPS      H6R            46.5629026132       12.7696142547       53.4263913040  MEMB      25              0.0000000000
      3349        31  POPS      H6S            45.0064346796       12.1957319043       54.1168493353  MEMB      25              0.0000000000
      3350        31  POPS      C27            45.7486836285       10.9756839793       52.4888968825  MEMB      25              0.0000000000
      3351        31  POPS      H7R            45.0045094001       10.1993286378       52.7796050367  MEMB      25              0.0000000000
      3352        31  POPS      H7S            46.6934514433       10.4545143889       52.2143376526  MEMB      25              0.0000000000
      3353        31  POPS      C28            45.2079577856       11.7333939703       51.2670578445  MEMB      25              0.0000000000
      3354        31  POPS      H8R            44.3276665161       12.3385019338       51.5783939093  MEMB      25              0.0000000000
      3355        31  POPS      H8S            44.8492282913       10.9817459307       50.5282472043  MEMB      25              0.0000000000
      3356        31  POPS      C29            46.2629921250       12.5996307128       50.6307803451  MEMB      25              0.0000000000
      3357        31  POPS      H91            47.2715422154       12.5236466928       51.0641949118  MEMB      25              0.0000000000
      3358        31  POPS      C210           46.0550626645       13.4391551025       49.6049375459  MEMB      25              0.0000000000
      3359        31  POPS      H101           46.9030790569       13.9994111768       49.1845031572  MEMB      25              0.0000000000
      3360        31  POPS      C211           44.7358365255       13.6557143741       48.9198016573  MEMB      25              0.0000000000
      3361        31  POPS      H11R           44.0787232128       12.7700470729       49.0470776955  MEMB      25              0.0000000000
      3362        31  POPS      H11S           44.8930542054       13.7865164791       47.8268071609  MEMB      25              0.0000000000
      3363        31  POPS      C212           43.9862968466       14.8728485523       49.4786718551  MEMB      25              0.0000000000
      3364        31  POPS      H12R           44.5142320736       15.8051338090       49.1768311175  MEMB      25              0.0000000000
      3365        31  POPS      H12S           43.9830939986       14.8313877276       50.5929957193  MEMB      25              0.0000000000
      3366        31  POPS      C213           42.5278749654       14.9426201953       49.0073576261  MEMB      25              0.0000000000
      3367        31  POPS      H13R           42.0635845067       15.8358363035       49.4823386422  MEMB      25              0.0000000000
      3368        31  POPS      H13S           41.9641885518       14.0549791178       49.3699477182  MEMB      25              0.0000000000
      3369        31  POPS      C214           42.3689703482       15.0669648888       47.4847194075  MEMB      25              0.0000000000
      3370        31  POPS      H14R           43.2483688617       15.5697533309       47.0297882491  MEMB      25              0.0000000000
      3371        31  POPS      H14S           41.4812205281       15.7007869480       47.2890460080  MEMB      25              0.0000000000
      3372        31  POPS      C215           42.0517557657       13.7516929802       46.7742446364  MEMB      25              0.0000000000
      3373        31  POPS      H15R           41.2386724642       13.2337255407       47.3285693655  MEMB      25              0.0000000000
      3374        31  POPS      H15S           42.9377133743       13.0902382750       46.7950194601  MEMB      25              0.0000000000
      3375        31  POPS      C216           41.5956286256       13.9713031915       45.3286707608  MEMB      25              0.0000000000
      3376        31  POPS      H16R           42.4912151567       14.1542507971       44.6942422934  MEMB      25              0.0000000000
      3377        31  POPS      H16S           40.9584591182       14.8804156163       45.2590262371  MEMB      25              0.0000000000
      3378        31  POPS      C217           40.7935471333       12.7834318227       44.7895731133  MEMB      25              0.0000000000
      3379        31  POPS      H17R           39.7095023088       12.9853382100       44.9468118690  MEMB      25              0.0000000000
      3380        31  POPS      H17S           41.0472640830       11.8735056845       45.3792442140  MEMB      25              0.0000000000
      3381        31  POPS      C218           41.0619548501       12.4960342159       43.3166241451  MEMB      25              0.0000000000
      3382        31  POPS      H18R           40.2583147453       11.8639330512       42.8859955242  MEMB      25              0.0000000000
      3383        31  POPS      H18S           42.0313877101       11.9678516125       43.1913241261  MEMB      25              0.0000000000
      3384        31  POPS      H18T           41.1161945959       13.4363933209       42.7371856347  MEMB      25              0.0000000000
      3385        31  POPS      C33            44.5443042279       14.3338890196       56.9013677692  MEMB      25              0.0000000000
      3386        31  POPS      H3X            44.2833936409       13.4463937450       56.2796519613  MEMB      25              0.0000000000
      3387        31  POPS      H3Y            45.6084315778       14.2486899632       57.2134320677  MEMB      25              0.0000000000
      3388        31  POPS      C34            44.3528302404       15.5880240179       56.0338492646  MEMB      25              0.0000000000
      3389        31  POPS      H4X            44.5749166823       16.5046442733       56.6242203320  MEMB      25              0.0000000000
      3390        31  POPS      H4Y            43.2828158203       15.6357295965       55.7269741049  MEMB      25              0.0000000000
      3391        31  POPS      C35            45.2248267528       15.5716390853       54.7736537582  MEMB      25              0.0000000000
      3392        31  POPS      H5X            44.7764125162       16.2430064338       54.0061283149  MEMB      25              0.0000000000
      3393        31  POPS      H5Y            45.2239047132       14.5441919032       54.3498589690  MEMB      25              0.0000000000
      3394        31  POPS      C36            46.6650157693       16.0264518994       55.0419573848  MEMB      25              0.0000000000
      3395        31  POPS      H6X            47.0653664094       15.5085072090       55.9414972560  MEMB      25              0.0000000000
      3396        31  POPS      H6Y            46.6622115357       17.1151088814       55.2715602720  MEMB      25              0.0000000000
      3397        31  POPS      C37            47.6176254358       15.7568988438       53.8694735046  MEMB      25              0.0000000000
      3398        31  POPS      H7X            47.8721096609       14.6721338141       53.8454390959  MEMB      25              0.0000000000
      3399        31  POPS      H7Y            48.5546405729       16.3322807583       54.0431986628  MEMB      25              0.0000000000
      3400        31  POPS      C38            47.0771464227       16.1638441223       52.5005275942  MEMB      25              0.0000000000
      3401        31  POPS      H8X            46.7966968136       17.2391523138       52.5341627531  MEMB      25              0.0000000000
      3402        31  POPS      H8Y            46.1637269294       15.5801767271       52.2464067673  MEMB      25              0.0000000000
      3403        31  POPS      C39            48.1168102407       15.9419815404       51.4023025943  MEMB      25              0.0000000000
      3404        31  POPS      H9X            48.2929140832       14.8501235414       51.2735837879  MEMB      25              0.0000000000
      3405        31  POPS      H9Y            49.0833104352       16.4054090206       51.7033195699  MEMB      25              0.0000000000
      3406        31  POPS      C310           47.6614791447       16.5610325076       50.0843941913  MEMB      25              0.0000000000
      3407        31  POPS      H10X           47.5422699167       17.6582589724       50.2285898443  MEMB      25              0.0000000000
      3408        31  POPS      H10Y           46.6657571780       16.1575994505       49.8039151875  MEMB      25              0.0000000000
      3409        31  POPS      C311           48.6582692759       16.3088107411       48.9557485520  MEMB      25              0.0000000000
      3410        31  POPS      H11X           48.7969600790       15.2193225223       48.7933339470  MEMB      25              0.0000000000
      3411        31  POPS      H11Y           49.6405653938       16.7241246474       49.2800358361  MEMB      25              0.0000000000
      3412        31  POPS      C312           48.2401723290       17.0077706734       47.6592247782  MEMB      25              0.0000000000
      3413        31  POPS      H12X           49.1537435093       17.4821228211       47.2352751249  MEMB      25              0.0000000000
      3414        31  POPS      H12Y           47.5162255188       17.8169080427       47.9008635780  MEMB      25              0.0000000000
      3415        31  POPS      C313           47.6272658268       16.0962204844       46.5889193391  MEMB      25              0.0000000000
      3416        31  POPS      H13X           47.2820806381       16.7428937277       45.7484601558  MEMB      25              0.0000000000
      3417        31  POPS      H13Y           46.7368094627       15.5626496701       46.9896698312  MEMB      25              0.0000000000
      3418        31  POPS      C314           48.6375565732       15.0900720224       46.0288778824  MEMB      25              0.0000000000
      3419        31  POPS      H14X           48.7497291029       14.2383141062       46.7356372808  MEMB      25              0.0000000000
      3420        31  POPS      H14Y           49.6326188199       15.5833954384       45.9344037314  MEMB      25              0.0000000000
      3421        31  POPS      C315           48.2422861215       14.5642713050       44.6485376185  MEMB      25              0.0000000000
      3422        31  POPS      H15X           48.2696673728       15.4074947960       43.9210245277  MEMB      25              0.0000000000
      3423        31  POPS      H15Y           47.1973061667       14.1822131768       44.6890338713  MEMB      25              0.0000000000
      3424        31  POPS      C316           49.1720379955       13.4518120172       44.1737826312  MEMB      25              0.0000000000
      3425        31  POPS      H16X           50.2293007073       13.7913922981       44.1839654058  MEMB      25              0.0000000000
      3426        31  POPS      H16Y           48.9247586888       13.1042154407       43.1507015826  MEMB      25              0.0000000000
      3427        31  POPS      H16Z           49.0726648742       12.5862252838       44.8558045685  MEMB      25              0.0000000000
      3428        32  POPC      N               8.7189551241       35.4226728140       65.2431851000  MEMB      26              0.0000000000
      3429        32  POPC      C12             9.3855681702       34.7424240501       64.0555508763  MEMB      26              0.0000000000
      3430        32  POPC      H12A           10.1295580477       35.4312065306       63.6507550645  MEMB      26              0.0000000000
      3431        32  POPC      H12B            8.6470635484       34.5753505660       63.2890423839  MEMB      26              0.0000000000
      3432        32  POPC      C13             9.8004449798       35.7412222901       66.2241709862  MEMB      26              0.0000000000
      3433        32  POPC      H13A            9.4075476630       36.0974741686       67.1686586189  MEMB      26              0.0000000000
      3434        32  POPC      H13B           10.3627826167       34.8238187511       66.4223237189  MEMB      26              0.0000000000
      3435        32  POPC      H13C           10.5028245269       36.4612724517       65.8106046097  MEMB      26              0.0000000000
      3436        32  POPC      C14             8.0398105795       36.7167830366       64.9055352631  MEMB      26              0.0000000000
      3437        32  POPC      H14A            7.1731887747       36.5756233954       64.2779018255  MEMB      26              0.0000000000
      3438        32  POPC      H14B            7.7177406077       37.1950899355       65.8253275976  MEMB      26              0.0000000000
      3439        32  POPC      H14C            8.7256618319       37.3873450270       64.3943392839  MEMB      26              0.0000000000
      3440        32  POPC      C15             7.7353038931       34.5051395118       65.8973344288  MEMB      26              0.0000000000
      3441        32  POPC      H15A            8.2432314977       33.5823467175       66.1644502165  MEMB      26              0.0000000000
      3442        32  POPC      H15B            6.8759220080       34.2697416823       65.2762177889  MEMB      26              0.0000000000
      3443        32  POPC      H15C            7.3835410690       34.9577828966       66.8232425117  MEMB      26              0.0000000000
      3444        32  POPC      C11            10.1355592796       33.3887168466       64.2901341315  MEMB      26              0.0000000000
      3445        32  POPC      H11A           10.3028518089       32.9070626431       63.2955094869  MEMB      26              0.0000000000
      3446        32  POPC      H11B            9.4770361736       32.6920105881       64.8512270019  MEMB      26              0.0000000000
      3447        32  POPC      P              12.6270979087       34.1282223469       64.2463625965  MEMB      26              0.0000000000
      3448        32  POPC      O13            12.6740563377       33.5940650155       62.8685996176  MEMB      26              0.0000000000
      3449        32  POPC      O14            13.8498801400       34.0071387354       65.0883448819  MEMB      26              0.0000000000
      3450        32  POPC      O12            11.3726210402       33.5220675768       65.0055922798  MEMB      26              0.0000000000
      3451        32  POPC      O11            12.2465259669       35.6707458707       64.1901370302  MEMB      26              0.0000000000
      3452        32  POPC      C1             13.2220436405       36.5903559581       63.6726946063  MEMB      26              0.0000000000
      3453        32  POPC      HA             14.1121659268       36.0914989814       63.2113925575  MEMB      26              0.0000000000
      3454        32  POPC      HB             13.5952744048       37.2245772705       64.5051557484  MEMB      26              0.0000000000
      3455        32  POPC      C2             12.6451785719       37.5326420167       62.5785874806  MEMB      26              0.0000000000
      3456        32  POPC      HS             11.9139614367       38.2075108967       63.0818809264  MEMB      26              0.0000000000
      3457        32  POPC      O21            12.0401685341       36.7634308477       61.5175344142  MEMB      26              0.0000000000
      3458        32  POPC      C21            10.7331032343       36.5835295523       61.6024922748  MEMB      26              0.0000000000
      3459        32  POPC      O22             9.9815930320       37.1185384375       62.4066255414  MEMB      26              0.0000000000
      3460        32  POPC      C22            10.2465363619       35.5666984256       60.5610970596  MEMB      26              0.0000000000
      3461        32  POPC      H2R             9.3582419188       35.0701308250       61.0041164069  MEMB      26              0.0000000000
      3462        32  POPC      H2S            11.0353252286       34.8010636727       60.4091434234  MEMB      26              0.0000000000
      3463        32  POPC      C3             13.7837936346       38.4404464376       62.0172419203  MEMB      26              0.0000000000
      3464        32  POPC      HX             14.3187083128       38.8683310456       62.8947080175  MEMB      26              0.0000000000
      3465        32  POPC      HY             13.3431148143       39.3191865998       61.4893549265  MEMB      26              0.0000000000
      3466        32  POPC      O31            14.7338012484       37.6845108340       61.2203716318  MEMB      26              0.0000000000
      3467        32  POPC      C31            14.5105259271       37.7917145393       59.8958555077  MEMB      26              0.0000000000
      3468        32  POPC      O32            13.6909512982       38.5230994774       59.3793035556  MEMB      26              0.0000000000
      3469        32  POPC      C32            15.4918197346       36.8973003336       59.1215901791  MEMB      26              0.0000000000
      3470        32  POPC      H2X            16.2804201598       36.5174077061       59.7963126565  MEMB      26              0.0000000000
      3471        32  POPC      H2Y            15.9570944383       37.5781249112       58.3767067965  MEMB      26              0.0000000000
      3472        32  POPC      C23             9.8353109673       36.2270386074       59.2253095860  MEMB      26              0.0000000000
      3473        32  POPC      H3R             9.3290669584       37.1990484601       59.4172006120  MEMB      26              0.0000000000
      3474        32  POPC      H3S             9.1079529388       35.5743465681       58.6887262888  MEMB      26              0.0000000000
      3475        32  POPC      C24            11.0460394504       36.4245692008       58.3068257290  MEMB      26              0.0000000000
      3476        32  POPC      H4R            11.2377851238       35.4915755083       57.7363255412  MEMB      26              0.0000000000
      3477        32  POPC      H4S            11.9457482111       36.6149031902       58.9365213867  MEMB      26              0.0000000000
      3478        32  POPC      C25            10.9052940507       37.6294903130       57.3745033328  MEMB      26              0.0000000000
      3479        32  POPC      H5R            10.8571949301       38.5229129599       58.0362658214  MEMB      26              0.0000000000
      3480        32  POPC      H5S             9.9723362844       37.5705086775       56.7747035091  MEMB      26              0.0000000000
      3481        32  POPC      C26            12.1190574721       37.8460155078       56.4687628376  MEMB      26              0.0000000000
      3482        32  POPC      H6R            13.0348638793       37.7689729024       57.0908952149  MEMB      26              0.0000000000
      3483        32  POPC      H6S            12.1146410178       38.8938608707       56.1002923411  MEMB      26              0.0000000000
      3484        32  POPC      C27            12.2151472288       36.8488595427       55.3053190725  MEMB      26              0.0000000000
      3485        32  POPC      H7R            11.9647207870       35.8297164623       55.6705069171  MEMB      26              0.0000000000
      3486        32  POPC      H7S            13.2780904995       36.8154046541       54.9755219777  MEMB      26              0.0000000000
      3487        32  POPC      C28            11.3160091596       37.1987359733       54.1020625335  MEMB      26              0.0000000000
      3488        32  POPC      H8R            10.2509601517       37.1754503166       54.4210023500  MEMB      26              0.0000000000
      3489        32  POPC      H8S            11.4381789584       36.4084157705       53.3268610421  MEMB      26              0.0000000000
      3490        32  POPC      C29            11.6719988796       38.5552206512       53.5535714390  MEMB      26              0.0000000000
      3491        32  POPC      H91            11.0193311183       39.3806531656       53.8734787312  MEMB      26              0.0000000000
      3492        32  POPC      C210           12.6930040190       38.8091903059       52.7213480914  MEMB      26              0.0000000000
      3493        32  POPC      H101           12.8827161209       39.8457620902       52.4051027248  MEMB      26              0.0000000000
      3494        32  POPC      C211           13.6518409038       37.7785956384       52.1922714430  MEMB      26              0.0000000000
      3495        32  POPC      H11R           13.1805808452       37.3014336881       51.3097045376  MEMB      26              0.0000000000
      3496        32  POPC      H11S           13.8304317427       36.9563044049       52.9196661131  MEMB      26              0.0000000000
      3497        32  POPC      C212           15.0205799096       38.3558230335       51.7838069778  MEMB      26              0.0000000000
      3498        32  POPC      H12R           15.5561828490       38.6644949071       52.7117757579  MEMB      26              0.0000000000
      3499        32  POPC      H12S           14.9074226841       39.2622003778       51.1482231023  MEMB      26              0.0000000000
      3500        32  POPC      C213           15.8706716745       37.3166575622       51.0335070772  MEMB      26              0.0000000000
      3501        32  POPC      H13R           15.6074150720       36.3045291437       51.4132796325  MEMB      26              0.0000000000
      3502        32  POPC      H13S           16.9451630234       37.4876953451       51.2710579284  MEMB      26              0.0000000000
      3503        32  POPC      C214           15.7277424282       37.3382375789       49.4985154089  MEMB      26              0.0000000000
      3504        32  POPC      H14R           16.1826048274       36.4067662802       49.0954066204  MEMB      26              0.0000000000
      3505        32  POPC      H14S           16.3096678538       38.2015375364       49.0994514203  MEMB      26              0.0000000000
      3506        32  POPC      C215           14.2960824380       37.4356692174       48.9587857344  MEMB      26              0.0000000000
      3507        32  POPC      H15R           13.8504598996       38.3976332243       49.2975799947  MEMB      26              0.0000000000
      3508        32  POPC      H15S           13.6776087863       36.6043038854       49.3644645735  MEMB      26              0.0000000000
      3509        32  POPC      C216           14.2408888628       37.3868372872       47.4279174662  MEMB      26              0.0000000000
      3510        32  POPC      H16R           14.2431318940       36.3210484914       47.1074657139  MEMB      26              0.0000000000
      3511        32  POPC      H16S           15.1595585930       37.8655039517       47.0161928944  MEMB      26              0.0000000000
      3512        32  POPC      C217           13.0201498686       38.1115809131       46.8436559143  MEMB      26              0.0000000000
      3513        32  POPC      H17R           13.0880022471       38.0770642855       45.7320561434  MEMB      26              0.0000000000
      3514        32  POPC      H17S           13.0667207417       39.1820984795       47.1515499524  MEMB      26              0.0000000000
      3515        32  POPC      C218           11.6669960790       37.5371082607       47.2631962270  MEMB      26              0.0000000000
      3516        32  POPC      H18R           10.8421033264       38.1153310598       46.7931388593  MEMB      26              0.0000000000
      3517        32  POPC      H18S           11.5413378390       37.5774419212       48.3666866851  MEMB      26              0.0000000000
      3518        32  POPC      H18T           11.5818061115       36.4817519573       46.9310305959  MEMB      26              0.0000000000
      3519        32  POPC      C33            14.8236307633       35.7389776124       58.3430405579  MEMB      26              0.0000000000
      3520        32  POPC      H3X            15.4837894043       35.4621343934       57.4883216372  MEMB      26              0.0000000000
      3521        32  POPC      H3Y            13.8587036674       36.0616563365       57.9065498224  MEMB      26              0.0000000000
      3522        32  POPC      C34            14.5966900254       34.4649236892       59.1691703176  MEMB      26              0.0000000000
      3523        32  POPC      H4X            14.1819279550       34.7283996915       60.1700703586  MEMB      26              0.0000000000
      3524        32  POPC      H4Y            15.5822721936       33.9697815624       59.3175847810  MEMB      26              0.0000000000
      3525        32  POPC      C35            13.6322401076       33.4577547628       58.5089264084  MEMB      26              0.0000000000
      3526        32  POPC      H5X            12.5977620100       33.8505230448       58.6247113575  MEMB      26              0.0000000000
      3527        32  POPC      H5Y            13.6930070730       32.4872837143       59.0528566253  MEMB      26              0.0000000000
      3528        32  POPC      C36            13.9023728417       33.1994291931       57.0136156586  MEMB      26              0.0000000000
      3529        32  POPC      H6X            14.9594556687       32.8705643447       56.8893420573  MEMB      26              0.0000000000
      3530        32  POPC      H6Y            13.7689729149       34.1524964133       56.4532278199  MEMB      26              0.0000000000
      3531        32  POPC      C37            12.9815832724       32.1423837220       56.3717587548  MEMB      26              0.0000000000
      3532        32  POPC      H7X            13.2391416960       31.1316219186       56.7593331575  MEMB      26              0.0000000000
      3533        32  POPC      H7Y            13.1814803416       32.1418643652       55.2774377187  MEMB      26              0.0000000000
      3534        32  POPC      C38            11.4859066810       32.3982481056       56.6227758934  MEMB      26              0.0000000000
      3535        32  POPC      H8X            11.2718060267       33.4801232290       56.4865873365  MEMB      26              0.0000000000
      3536        32  POPC      H8Y            11.2726251331       32.1532458964       57.6889683147  MEMB      26              0.0000000000
      3537        32  POPC      C39            10.5368738579       31.5779129364       55.7325282397  MEMB      26              0.0000000000
      3538        32  POPC      H9X             9.5023233023       31.6984244821       56.1295388824  MEMB      26              0.0000000000
      3539        32  POPC      H9Y            10.7942107751       30.4986711478       55.8177818713  MEMB      26              0.0000000000
      3540        32  POPC      C310           10.5238638976       31.9871690673       54.2482530522  MEMB      26              0.0000000000
      3541        32  POPC      H10X            9.7760381438       31.3518854744       53.7196987267  MEMB      26              0.0000000000
      3542        32  POPC      H10Y           11.5166351365       31.7780007690       53.7940852969  MEMB      26              0.0000000000
      3543        32  POPC      C311           10.1590990185       33.4633552359       54.0295758416  MEMB      26              0.0000000000
      3544        32  POPC      H11X           10.9698427117       34.1121178375       54.4280247273  MEMB      26              0.0000000000
      3545        32  POPC      H11Y            9.2355800239       33.6888156192       54.6099777756  MEMB      26              0.0000000000
      3546        32  POPC      C312            9.9112573290       33.8357802560       52.5606752042  MEMB      26              0.0000000000
      3547        32  POPC      H12X            9.5394686744       34.8860165953       52.5296709872  MEMB      26              0.0000000000
      3548        32  POPC      H12Y            9.1075600717       33.1853715223       52.1517332011  MEMB      26              0.0000000000
      3549        32  POPC      C313           11.1650297859       33.7402000909       51.6763266843  MEMB      26              0.0000000000
      3550        32  POPC      H13X           11.4344660062       32.6728407202       51.5179811698  MEMB      26              0.0000000000
      3551        32  POPC      H13Y           12.0130126649       34.2251614494       52.2127906488  MEMB      26              0.0000000000
      3552        32  POPC      C314           10.9940692183       34.4443503337       50.3200675257  MEMB      26              0.0000000000
      3553        32  POPC      H14X           11.9653428989       34.4317942424       49.7745557648  MEMB      26              0.0000000000
      3554        32  POPC      H14Y           10.7311294076       35.5114283854       50.5028849873  MEMB      26              0.0000000000
      3555        32  POPC      C315            9.9141120005       33.8104353087       49.4343180338  MEMB      26              0.0000000000
      3556        32  POPC      H15X            8.9722009020       33.6983931807       50.0159701303  MEMB      26              0.0000000000
      3557        32  POPC      H15Y           10.2455926637       32.7875239607       49.1454565104  MEMB      26              0.0000000000
      3558        32  POPC      C316            9.6040722858       34.6251836427       48.1779727741  MEMB      26              0.0000000000
      3559        32  POPC      H16X            8.7748990542       34.1515925998       47.6095318256  MEMB      26              0.0000000000
      3560        32  POPC      H16Y           10.4920810925       34.6809361047       47.5150872748  MEMB      26              0.0000000000
      3561        32  POPC      H16Z            9.2995669919       35.6586179973       48.4494085465  MEMB      26              0.0000000000
      3562        33  POPC      N              55.2444453566       26.1825713394       63.2665876329  MEMB      27              0.0000000000
      3563        33  POPC      C12            56.6247189812       26.7849048008       63.0224405761  MEMB      27              0.0000000000
      3564        33  POPC      H12A           56.6142753137       27.3380372365       62.0914852754  MEMB      27              0.0000000000
      3565        33  POPC      H12B           57.3533129809       25.9895111511       62.8536819632  MEMB      27              0.0000000000
      3566        33  POPC      C13            55.3720122936       24.8543844689       63.9729017184  MEMB      27              0.0000000000
      3567        33  POPC      H13A           55.9221198188       24.1088243404       63.4114272618  MEMB      27              0.0000000000
      3568        33  POPC      H13B           55.9187369718       24.9739774694       64.9151312703  MEMB      27              0.0000000000
      3569        33  POPC      H13C           54.4144083016       24.4402436393       64.2530549755  MEMB      27              0.0000000000
      3570        33  POPC      C14            54.4687372456       27.0755765790       64.1838685545  MEMB      27              0.0000000000
      3571        33  POPC      H14A           53.5124860552       26.6514786077       64.4468874858  MEMB      27              0.0000000000
      3572        33  POPC      H14B           55.0465831709       27.1808338226       65.1051381978  MEMB      27              0.0000000000
      3573        33  POPC      H14C           54.3472516178       28.0591316428       63.7635963861  MEMB      27              0.0000000000
      3574        33  POPC      C15            54.4656939852       25.9825319767       62.0038241661  MEMB      27              0.0000000000
      3575        33  POPC      H15A           54.9664182280       25.2561957139       61.3709576914  MEMB      27              0.0000000000
      3576        33  POPC      H15B           54.3183056543       26.9123395829       61.4638415610  MEMB      27              0.0000000000
      3577        33  POPC      H15C           53.4799135771       25.5951614114       62.2452260108  MEMB      27              0.0000000000
      3578        33  POPC      C11            57.2174881794       27.7133042315       64.1299989864  MEMB      27              0.0000000000
      3579        33  POPC      H11A           56.6462473367       28.6676128140       64.1366836628  MEMB      27              0.0000000000
      3580        33  POPC      H11B           58.2648159621       27.9855695881       63.8739220197  MEMB      27              0.0000000000
      3581        33  POPC      P              58.0715145937       25.9575533430       65.9402573948  MEMB      27              0.0000000000
      3582        33  POPC      O13            57.1653854420       24.9469587278       66.5355733299  MEMB      27              0.0000000000
      3583        33  POPC      O14            59.1620317503       26.4865162783       66.7932335883  MEMB      27              0.0000000000
      3584        33  POPC      O12            57.1579561647       27.1571671542       65.4353383810  MEMB      27              0.0000000000
      3585        33  POPC      O11            58.6501923200       25.3863383194       64.5927536756  MEMB      27              0.0000000000
      3586        33  POPC      C1             59.9726100425       25.7708085497       64.1957209998  MEMB      27              0.0000000000
      3587        33  POPC      HA             60.7041338682       25.0820014052       64.6780707946  MEMB      27              0.0000000000
      3588        33  POPC      HB             60.2464805761       26.8145470813       64.4884125351  MEMB      27              0.0000000000
      3589        33  POPC      C2             60.1138579644       25.6279655416       62.6643916056  MEMB      27              0.0000000000
      3590        33  POPC      HS             61.1877723155       25.5821277967       62.3812224129  MEMB      27              0.0000000000
      3591        33  POPC      O21            59.4649574948       26.7213886311       61.9719845351  MEMB      27              0.0000000000
      3592        33  POPC      C21            60.2348562383       27.8049179776       61.9068619337  MEMB      27              0.0000000000
      3593        33  POPC      O22            61.3645417325       27.9042431309       62.3354579274  MEMB      27              0.0000000000
      3594        33  POPC      C22            59.4660812837       28.9400252729       61.2260102478  MEMB      27              0.0000000000
      3595        33  POPC      H2R            59.2942204280       29.7207392186       61.9976837254  MEMB      27              0.0000000000
      3596        33  POPC      H2S            58.4894666711       28.5679757490       60.8636051716  MEMB      27              0.0000000000
      3597        33  POPC      C3             59.5229924316       24.2708585089       62.2279248701  MEMB      27              0.0000000000
      3598        33  POPC      HX             58.4807541265       24.1441393234       62.5964587405  MEMB      27              0.0000000000
      3599        33  POPC      HY             60.1198103148       23.4761114093       62.7300987868  MEMB      27              0.0000000000
      3600        33  POPC      O31            59.6430538483       24.1158689523       60.8075913133  MEMB      27              0.0000000000
      3601        33  POPC      C31            58.6043864027       24.5317428650       60.1052922052  MEMB      27              0.0000000000
      3602        33  POPC      O32            57.5874948689       25.0383808989       60.5525156300  MEMB      27              0.0000000000
      3603        33  POPC      C32            58.7780639667       24.0333852607       58.6648677104  MEMB      27              0.0000000000
      3604        33  POPC      H2X            57.9173879624       23.3637789031       58.4548894987  MEMB      27              0.0000000000
      3605        33  POPC      H2Y            59.7126036342       23.4317718632       58.6248821716  MEMB      27              0.0000000000
      3606        33  POPC      C23            60.2694326589       29.5598519750       60.0607010105  MEMB      27              0.0000000000
      3607        33  POPC      H3R            61.2586204967       29.9017853431       60.4445503378  MEMB      27              0.0000000000
      3608        33  POPC      H3S            59.7462746272       30.4697619640       59.6889833364  MEMB      27              0.0000000000
      3609        33  POPC      C24            60.4848773438       28.6037120751       58.8751875768  MEMB      27              0.0000000000
      3610        33  POPC      H4R            60.4457521132       27.5446190080       59.2083382054  MEMB      27              0.0000000000
      3611        33  POPC      H4S            61.5141005090       28.7811482552       58.4825189058  MEMB      27              0.0000000000
      3612        33  POPC      C25            59.5207591043       28.8059217421       57.6915372764  MEMB      27              0.0000000000
      3613        33  POPC      H5R            59.8335887770       28.1101424890       56.8783225884  MEMB      27              0.0000000000
      3614        33  POPC      H5S            59.6311147287       29.8411894600       57.2990703118  MEMB      27              0.0000000000
      3615        33  POPC      C26            58.0402508582       28.5394330780       58.0065484238  MEMB      27              0.0000000000
      3616        33  POPC      H6R            57.6573918318       29.3200566066       58.6993505776  MEMB      27              0.0000000000
      3617        33  POPC      H6S            57.9515449210       27.5590150465       58.5224356945  MEMB      27              0.0000000000
      3618        33  POPC      C27            57.1756575494       28.5289963244       56.7323312787  MEMB      27              0.0000000000
      3619        33  POPC      H7R            57.6093016991       27.8136613135       55.9975999459  MEMB      27              0.0000000000
      3620        33  POPC      H7S            57.2321162949       29.5430316586       56.2743991540  MEMB      27              0.0000000000
      3621        33  POPC      C28            55.6896438330       28.1792279672       56.9608273689  MEMB      27              0.0000000000
      3622        33  POPC      H8R            55.1481606116       28.4141790677       56.0170890247  MEMB      27              0.0000000000
      3623        33  POPC      H8S            55.2749111404       28.8691865516       57.7293429708  MEMB      27              0.0000000000
      3624        33  POPC      C29            55.4780335841       26.7375126185       57.3654306256  MEMB      27              0.0000000000
      3625        33  POPC      H91            55.7324299208       26.5165064176       58.4142145747  MEMB      27              0.0000000000
      3626        33  POPC      C210           55.0516986172       25.7230228422       56.5831370307  MEMB      27              0.0000000000
      3627        33  POPC      H101           54.9542397205       24.7191139369       57.0225176673  MEMB      27              0.0000000000
      3628        33  POPC      C211           54.6840252205       25.7872675316       55.1201989083  MEMB      27              0.0000000000
      3629        33  POPC      H11R           54.7181975621       26.8282542971       54.7370418780  MEMB      27              0.0000000000
      3630        33  POPC      H11S           53.6331578253       25.4466111130       54.9844502425  MEMB      27              0.0000000000
      3631        33  POPC      C212           55.5837995140       24.9113552734       54.2206066583  MEMB      27              0.0000000000
      3632        33  POPC      H12R           55.4613117985       23.8447704702       54.5153918300  MEMB      27              0.0000000000
      3633        33  POPC      H12S           56.6535733342       25.1819683189       54.3637904025  MEMB      27              0.0000000000
      3634        33  POPC      C213           55.2256825086       25.0604789559       52.7309524868  MEMB      27              0.0000000000
      3635        33  POPC      H13R           54.1194320294       25.0090629602       52.6393714984  MEMB      27              0.0000000000
      3636        33  POPC      H13S           55.6542132637       24.2154232628       52.1472361150  MEMB      27              0.0000000000
      3637        33  POPC      C214           55.7311006255       26.3824817731       52.1289578997  MEMB      27              0.0000000000
      3638        33  POPC      H14R           56.7591223770       26.2346040544       51.7461469560  MEMB      27              0.0000000000
      3639        33  POPC      H14S           55.7904491417       27.1518783848       52.9298725827  MEMB      27              0.0000000000
      3640        33  POPC      C215           54.8649538979       26.9459227986       50.9955269524  MEMB      27              0.0000000000
      3641        33  POPC      H15R           55.2817399250       27.9358189273       50.6986670915  MEMB      27              0.0000000000
      3642        33  POPC      H15S           53.8319028289       27.1203891025       51.3708144998  MEMB      27              0.0000000000
      3643        33  POPC      C216           54.8164625911       26.0519454300       49.7494626926  MEMB      27              0.0000000000
      3644        33  POPC      H16R           54.2675224791       25.1155032060       49.9912779653  MEMB      27              0.0000000000
      3645        33  POPC      H16S           55.8527661010       25.7714778661       49.4520550744  MEMB      27              0.0000000000
      3646        33  POPC      C217           54.1359407612       26.7605706689       48.5718503213  MEMB      27              0.0000000000
      3647        33  POPC      H17R           54.7547977615       27.6386009071       48.2734867868  MEMB      27              0.0000000000
      3648        33  POPC      H17S           53.1560230050       27.1590319415       48.9206043035  MEMB      27              0.0000000000
      3649        33  POPC      C218           53.9088245762       25.8575791195       47.3586986157  MEMB      27              0.0000000000
      3650        33  POPC      H18R           53.3329685938       24.9525645870       47.6479798658  MEMB      27              0.0000000000
      3651        33  POPC      H18S           54.8792888114       25.5357503694       46.9214009620  MEMB      27              0.0000000000
      3652        33  POPC      H18T           53.3278732539       26.4002692338       46.5817845104  MEMB      27              0.0000000000
      3653        33  POPC      C33            58.8337232160       25.0707315389       57.5268500101  MEMB      27              0.0000000000
      3654        33  POPC      H3X            59.5804577392       25.8563190393       57.7501521798  MEMB      27              0.0000000000
      3655        33  POPC      H3Y            57.8549718436       25.5726723662       57.3976340342  MEMB      27              0.0000000000
      3656        33  POPC      C34            59.1950858365       24.3556189997       56.2143804669  MEMB      27              0.0000000000
      3657        33  POPC      H4X            58.3425115856       23.7015341632       55.9214482491  MEMB      27              0.0000000000
      3658        33  POPC      H4Y            60.0781710888       23.7011299710       56.3981307692  MEMB      27              0.0000000000
      3659        33  POPC      C35            59.5393009330       25.2733326106       55.0373987756  MEMB      27              0.0000000000
      3660        33  POPC      H5X            60.4486931024       25.8634348579       55.2921212721  MEMB      27              0.0000000000
      3661        33  POPC      H5Y            58.7101819119       25.9890846689       54.8494002249  MEMB      27              0.0000000000
      3662        33  POPC      C36            59.8168394905       24.4485781197       53.7706512897  MEMB      27              0.0000000000
      3663        33  POPC      H6X            58.8875044590       23.9352566193       53.4391361609  MEMB      27              0.0000000000
      3664        33  POPC      H6Y            60.5576959796       23.6579859592       54.0326410781  MEMB      27              0.0000000000
      3665        33  POPC      C37            60.3952065017       25.2775817079       52.6197982223  MEMB      27              0.0000000000
      3666        33  POPC      H7X            60.8538597484       24.5884557581       51.8739757959  MEMB      27              0.0000000000
      3667        33  POPC      H7Y            61.1984666376       25.9368236652       53.0140954819  MEMB      27              0.0000000000
      3668        33  POPC      C38            59.3569956866       26.1302582515       51.8946021611  MEMB      27              0.0000000000
      3669        33  POPC      H8X            58.7480245612       26.6927055559       52.6371956350  MEMB      27              0.0000000000
      3670        33  POPC      H8Y            58.6816011363       25.4485834334       51.3286590216  MEMB      27              0.0000000000
      3671        33  POPC      C39            59.9924885039       27.1259468396       50.9200449649  MEMB      27              0.0000000000
      3672        33  POPC      H9X            60.6805977117       26.5748849016       50.2398531390  MEMB      27              0.0000000000
      3673        33  POPC      H9Y            60.6059762815       27.8588960440       51.4827184985  MEMB      27              0.0000000000
      3674        33  POPC      C310           58.9528825367       27.8631071729       50.0647694841  MEMB      27              0.0000000000
      3675        33  POPC      H10X           58.1985004361       28.3663774906       50.7067694657  MEMB      27              0.0000000000
      3676        33  POPC      H10Y           58.4173811467       27.0860557205       49.4787144238  MEMB      27              0.0000000000
      3677        33  POPC      C311           59.6117931674       28.8941737248       49.1324433231  MEMB      27              0.0000000000
      3678        33  POPC      H11X           60.6398051567       28.5412351590       48.8980272485  MEMB      27              0.0000000000
      3679        33  POPC      H11Y           59.7246736840       29.8567403338       49.6789429880  MEMB      27              0.0000000000
      3680        33  POPC      C312           58.8814018152       29.1418859469       47.7994305627  MEMB      27              0.0000000000
      3681        33  POPC      H12X           59.4968786772       29.8477237391       47.1960933620  MEMB      27              0.0000000000
      3682        33  POPC      H12Y           57.9075700525       29.6390961620       48.0088095477  MEMB      27              0.0000000000
      3683        33  POPC      C313           58.6122203615       27.8804103034       46.9545437978  MEMB      27              0.0000000000
      3684        33  POPC      H13X           58.1821417255       28.1801812776       45.9730422399  MEMB      27              0.0000000000
      3685        33  POPC      H13Y           57.8328417299       27.2741258991       47.4677451722  MEMB      27              0.0000000000
      3686        33  POPC      C314           59.8450566156       26.9914089147       46.7145554225  MEMB      27              0.0000000000
      3687        33  POPC      H14X           60.3900484588       26.8275215116       47.6700952080  MEMB      27              0.0000000000
      3688        33  POPC      H14Y           60.5453186199       27.4988814542       46.0149956167  MEMB      27              0.0000000000
      3689        33  POPC      C315           59.4689529117       25.6036389546       46.1777434329  MEMB      27              0.0000000000
      3690        33  POPC      H15X           58.9707263094       25.7165899862       45.1896109476  MEMB      27              0.0000000000
      3691        33  POPC      H15Y           58.7254673645       25.1526786727       46.8750085399  MEMB      27              0.0000000000
      3692        33  POPC      C316           60.6665280245       24.6592133645       46.0549028138  MEMB      27              0.0000000000
      3693        33  POPC      H16X           60.3424339616       23.6389100326       45.7579878694  MEMB      27              0.0000000000
      3694        33  POPC      H16Y           61.1966855636       24.5868660447       47.0293560919  MEMB      27              0.0000000000
      3695        33  POPC      H16Z           61.3835927107       25.0398805324       45.2952472159  MEMB      27              0.0000000000
      3696        34  POPC      N              43.3373288605       57.9409996797       63.9102240594  MEMB      28              0.0000000000
      3697        34  POPC      C12            42.1943149910       57.7464415297       64.9104108519  MEMB      28              0.0000000000
      3698        34  POPC      H12A           41.2443776443       57.9138826392       64.4180601512  MEMB      28              0.0000000000
      3699        34  POPC      H12B           42.2592960193       58.4807226662       65.7059521775  MEMB      28              0.0000000000
      3700        34  POPC      C13            43.0664203462       57.1109343953       62.7005871237  MEMB      28              0.0000000000
      3701        34  POPC      H13A           42.2103848163       57.4666403242       62.1567778036  MEMB      28              0.0000000000
      3702        34  POPC      H13B           43.9250048590       57.0514058273       62.0472784192  MEMB      28              0.0000000000
      3703        34  POPC      H13C           42.8352804516       56.0930112820       63.0369668050  MEMB      28              0.0000000000
      3704        34  POPC      C14            43.4698717148       59.3858648023       63.5462878398  MEMB      28              0.0000000000
      3705        34  POPC      H14A           43.8226160415       59.9764895054       64.3892762173  MEMB      28              0.0000000000
      3706        34  POPC      H14B           44.2124948830       59.5419656747       62.7650884703  MEMB      28              0.0000000000
      3707        34  POPC      H14C           42.5228922695       59.7867377842       63.2114839051  MEMB      28              0.0000000000
      3708        34  POPC      C15            44.6300187416       57.4832308565       64.5055331343  MEMB      28              0.0000000000
      3709        34  POPC      H15A           44.5969297473       56.4025752472       64.6330786618  MEMB      28              0.0000000000
      3710        34  POPC      H15B           44.7914765572       57.9379265675       65.4726750168  MEMB      28              0.0000000000
      3711        34  POPC      H15C           45.4728351457       57.7351196711       63.8715499045  MEMB      28              0.0000000000
      3712        34  POPC      C11            42.0756240449       56.3752375010       65.6058908360  MEMB      28              0.0000000000
      3713        34  POPC      H11A           41.2005790787       56.4180507227       66.3002569944  MEMB      28              0.0000000000
      3714        34  POPC      H11B           42.9923044483       56.2279638648       66.2289926413  MEMB      28              0.0000000000
      3715        34  POPC      P              42.0911815670       53.8454875792       65.2226742689  MEMB      28              0.0000000000
      3716        34  POPC      O13            40.9991355021       52.9230264766       64.8325770065  MEMB      28              0.0000000000
      3717        34  POPC      O14            42.3888885482       53.8838308510       66.6659208353  MEMB      28              0.0000000000
      3718        34  POPC      O12            41.8800655215       55.3176828305       64.6599238857  MEMB      28              0.0000000000
      3719        34  POPC      O11            43.4372077297       53.4730244556       64.4922317807  MEMB      28              0.0000000000
      3720        34  POPC      C1             44.2897522572       52.4782128568       65.0648886670  MEMB      28              0.0000000000
      3721        34  POPC      HA             43.7122006069       51.5556871638       65.3282525654  MEMB      28              0.0000000000
      3722        34  POPC      HB             44.7551244979       52.8657975267       65.9983366088  MEMB      28              0.0000000000
      3723        34  POPC      C2             45.3907069217       52.0326065684       64.0526056162  MEMB      28              0.0000000000
      3724        34  POPC      HS             46.0986352817       51.3714644431       64.5974037363  MEMB      28              0.0000000000
      3725        34  POPC      O21            46.1214989877       53.1159638130       63.4409952884  MEMB      28              0.0000000000
      3726        34  POPC      C21            46.6673853023       54.0225951773       64.2242801538  MEMB      28              0.0000000000
      3727        34  POPC      O22            46.8044131024       53.9485557651       65.4385987925  MEMB      28              0.0000000000
      3728        34  POPC      C22            47.0920293079       55.2407410049       63.3911875281  MEMB      28              0.0000000000
      3729        34  POPC      H2R            48.1501121673       55.1065102293       63.0995946477  MEMB      28              0.0000000000
      3730        34  POPC      H2S            47.0358208355       56.1221617464       64.0576256423  MEMB      28              0.0000000000
      3731        34  POPC      C3             44.7271793939       51.1849281147       62.9227847789  MEMB      28              0.0000000000
      3732        34  POPC      HX             44.4112918928       50.2155500458       63.3690797565  MEMB      28              0.0000000000
      3733        34  POPC      HY             45.4759105314       50.9581500538       62.1303277543  MEMB      28              0.0000000000
      3734        34  POPC      O31            43.5457122126       51.8292197446       62.3999936559  MEMB      28              0.0000000000
      3735        34  POPC      C31            43.7484120529       52.7730805615       61.5149179568  MEMB      28              0.0000000000
      3736        34  POPC      O32            44.7778712878       52.9544293454       60.8860160252  MEMB      28              0.0000000000
      3737        34  POPC      C32            42.4674343971       53.5815580819       61.3072886522  MEMB      28              0.0000000000
      3738        34  POPC      H2X            42.2540345868       54.1455725365       62.2352911113  MEMB      28              0.0000000000
      3739        34  POPC      H2Y            41.6421152925       52.8604393636       61.1366614695  MEMB      28              0.0000000000
      3740        34  POPC      C23            46.2915815724       55.4545176125       62.0891274258  MEMB      28              0.0000000000
      3741        34  POPC      H3R            45.2034585665       55.4305752407       62.3001694135  MEMB      28              0.0000000000
      3742        34  POPC      H3S            46.5260114244       54.6008867851       61.4118104921  MEMB      28              0.0000000000
      3743        34  POPC      C24            46.6748203898       56.7638999750       61.3796596563  MEMB      28              0.0000000000
      3744        34  POPC      H4R            47.7752540577       56.7464002014       61.1963199592  MEMB      28              0.0000000000
      3745        34  POPC      H4S            46.4692742199       57.6290235006       62.0483887778  MEMB      28              0.0000000000
      3746        34  POPC      C25            45.9565254522       56.9752423194       60.0379623880  MEMB      28              0.0000000000
      3747        34  POPC      H5R            46.3324023840       57.9186329726       59.5823454116  MEMB      28              0.0000000000
      3748        34  POPC      H5S            44.8627258132       57.0901734908       60.1969080920  MEMB      28              0.0000000000
      3749        34  POPC      C26            46.1880850327       55.8247333207       59.0476453103  MEMB      28              0.0000000000
      3750        34  POPC      H6R            45.6562109854       54.9134897581       59.4052835605  MEMB      28              0.0000000000
      3751        34  POPC      H6S            47.2751933399       55.5840257582       59.0143639685  MEMB      28              0.0000000000
      3752        34  POPC      C27            45.7127170680       56.1292153998       57.6200489492  MEMB      28              0.0000000000
      3753        34  POPC      H7R            46.3109617037       56.9732785608       57.2122864046  MEMB      28              0.0000000000
      3754        34  POPC      H7S            44.6470511451       56.4481755697       57.6432318227  MEMB      28              0.0000000000
      3755        34  POPC      C28            45.8444515956       54.8916461799       56.7141253128  MEMB      28              0.0000000000
      3756        34  POPC      H8R            45.1883894689       54.0967254619       57.1284911708  MEMB      28              0.0000000000
      3757        34  POPC      H8S            46.8881503195       54.5129075503       56.7922261983  MEMB      28              0.0000000000
      3758        34  POPC      C29            45.5259760669       55.1879916515       55.2718891437  MEMB      28              0.0000000000
      3759        34  POPC      H91            46.2697158416       55.8317118121       54.7784320223  MEMB      28              0.0000000000
      3760        34  POPC      C210           44.4588983999       54.7946910436       54.5500689846  MEMB      28              0.0000000000
      3761        34  POPC      H101           44.4012236201       55.1203664619       53.5017849769  MEMB      28              0.0000000000
      3762        34  POPC      C211           43.2842587165       53.9527830281       54.9819945076  MEMB      28              0.0000000000
      3763        34  POPC      H11R           42.3560401165       54.5533956828       54.8715867502  MEMB      28              0.0000000000
      3764        34  POPC      H11S           43.3523431548       53.6775281001       56.0575539284  MEMB      28              0.0000000000
      3765        34  POPC      C212           43.1033583305       52.6545343358       54.1647794161  MEMB      28              0.0000000000
      3766        34  POPC      H12R           42.1770597255       52.1447380775       54.5162269139  MEMB      28              0.0000000000
      3767        34  POPC      H12S           43.9553376839       51.9743849945       54.3765559591  MEMB      28              0.0000000000
      3768        34  POPC      C213           43.0134464290       52.8193205517       52.6382552651  MEMB      28              0.0000000000
      3769        34  POPC      H13R           42.9202985272       51.8049556968       52.1849894709  MEMB      28              0.0000000000
      3770        34  POPC      H13S           43.9594889307       53.2644743589       52.2565941719  MEMB      28              0.0000000000
      3771        34  POPC      C214           41.8287676577       53.6728018844       52.1650595127  MEMB      28              0.0000000000
      3772        34  POPC      H14R           41.9143960480       54.6981148671       52.5865460656  MEMB      28              0.0000000000
      3773        34  POPC      H14S           40.8784035819       53.2296204409       52.5392819738  MEMB      28              0.0000000000
      3774        34  POPC      C215           41.7762909174       53.7654686149       50.6332972658  MEMB      28              0.0000000000
      3775        34  POPC      H15R           41.6643136319       52.7347706133       50.2293507776  MEMB      28              0.0000000000
      3776        34  POPC      H15S           42.7440816121       54.1721968565       50.2634930972  MEMB      28              0.0000000000
      3777        34  POPC      C216           40.6383482049       54.6553000748       50.1125881803  MEMB      28              0.0000000000
      3778        34  POPC      H16R           40.7271295961       55.6671287636       50.5681920528  MEMB      28              0.0000000000
      3779        34  POPC      H16S           39.6691498655       54.2328692558       50.4478497563  MEMB      28              0.0000000000
      3780        34  POPC      C217           40.6103527579       54.7938517331       48.5808692035  MEMB      28              0.0000000000
      3781        34  POPC      H17R           41.4884738687       55.4029883865       48.2654918076  MEMB      28              0.0000000000
      3782        34  POPC      H17S           39.6944720561       55.3609174344       48.2964504290  MEMB      28              0.0000000000
      3783        34  POPC      C218           40.6368152634       53.4685814703       47.8121950099  MEMB      28              0.0000000000
      3784        34  POPC      H18R           41.6125228776       52.9569353148       47.9575959089  MEMB      28              0.0000000000
      3785        34  POPC      H18S           40.5001402838       53.6509330888       46.7242326167  MEMB      28              0.0000000000
      3786        34  POPC      H18T           39.8334758252       52.7844970735       48.1574037457  MEMB      28              0.0000000000
      3787        34  POPC      C33            42.6292910670       54.5489860637       60.1156874870  MEMB      28              0.0000000000
      3788        34  POPC      H3X            43.1125281976       54.0074442314       59.2688596024  MEMB      28              0.0000000000
      3789        34  POPC      H3Y            43.3236355841       55.3745196569       60.3832160591  MEMB      28              0.0000000000
      3790        34  POPC      C34            41.3130102586       55.1365764959       59.5873917650  MEMB      28              0.0000000000
      3791        34  POPC      H4X            40.9326533255       55.9007261560       60.2997227004  MEMB      28              0.0000000000
      3792        34  POPC      H4Y            40.5494375443       54.3310696558       59.5006939096  MEMB      28              0.0000000000
      3793        34  POPC      C35            41.5562305551       55.7482648060       58.2028757416  MEMB      28              0.0000000000
      3794        34  POPC      H5X            41.8764927358       54.9312828572       57.5143591399  MEMB      28              0.0000000000
      3795        34  POPC      H5Y            42.4048440383       56.4641734734       58.2842456253  MEMB      28              0.0000000000
      3796        34  POPC      C36            40.3638751380       56.4691836359       57.5568288774  MEMB      28              0.0000000000
      3797        34  POPC      H6X            40.1727202959       57.4263777141       58.0909124810  MEMB      28              0.0000000000
      3798        34  POPC      H6Y            39.4492337146       55.8420214756       57.6496154059  MEMB      28              0.0000000000
      3799        34  POPC      C37            40.6171785930       56.7533309731       56.0636796308  MEMB      28              0.0000000000
      3800        34  POPC      H7X            39.7919304126       57.3596201664       55.6377270916  MEMB      28              0.0000000000
      3801        34  POPC      H7Y            40.6259685483       55.7833488873       55.5184837166  MEMB      28              0.0000000000
      3802        34  POPC      C38            41.9443780011       57.4750925189       55.7943008131  MEMB      28              0.0000000000
      3803        34  POPC      H8X            42.7893808076       56.8630727364       56.1815707763  MEMB      28              0.0000000000
      3804        34  POPC      H8Y            41.9548823562       58.4479287253       56.3332657861  MEMB      28              0.0000000000
      3805        34  POPC      C39            42.2149571645       57.7072235211       54.3058098488  MEMB      28              0.0000000000
      3806        34  POPC      H9X            41.4424891700       58.3880501521       53.8849512999  MEMB      28              0.0000000000
      3807        34  POPC      H9Y            42.1413018682       56.7373961189       53.7660809839  MEMB      28              0.0000000000
      3808        34  POPC      C310           43.6116014015       58.2990628365       54.0927888361  MEMB      28              0.0000000000
      3809        34  POPC      H10X           44.3853717138       57.6528182086       54.5565761005  MEMB      28              0.0000000000
      3810        34  POPC      H10Y           43.6453206324       59.2803946181       54.6223163444  MEMB      28              0.0000000000
      3811        34  POPC      C311           43.9466710439       58.5374667111       52.6205968558  MEMB      28              0.0000000000
      3812        34  POPC      H11X           44.8014366770       59.2505854437       52.5830003927  MEMB      28              0.0000000000
      3813        34  POPC      H11Y           43.0598368969       59.0181761111       52.1514392971  MEMB      28              0.0000000000
      3814        34  POPC      C312           44.3372511962       57.3039270753       51.7931229975  MEMB      28              0.0000000000
      3815        34  POPC      H12X           43.5246420611       56.5448066344       51.8333639300  MEMB      28              0.0000000000
      3816        34  POPC      H12Y           45.2570629768       56.8463871976       52.2182489163  MEMB      28              0.0000000000
      3817        34  POPC      C313           44.5890692117       57.6951224458       50.3287356362  MEMB      28              0.0000000000
      3818        34  POPC      H13X           45.3249911498       58.5312306966       50.2968694575  MEMB      28              0.0000000000
      3819        34  POPC      H13Y           43.6334649606       58.0725026187       49.8966311946  MEMB      28              0.0000000000
      3820        34  POPC      C314           45.1121028043       56.5574512627       49.4435775803  MEMB      28              0.0000000000
      3821        34  POPC      H14X           44.4094512192       55.6959816965       49.4917315812  MEMB      28              0.0000000000
      3822        34  POPC      H14Y           46.0990566316       56.2123101499       49.8239734533  MEMB      28              0.0000000000
      3823        34  POPC      C315           45.2585085342       57.0123785329       47.9838721117  MEMB      28              0.0000000000
      3824        34  POPC      H15X           45.9179968109       57.9105030540       47.9571351787  MEMB      28              0.0000000000
      3825        34  POPC      H15Y           44.2558453055       57.3264698974       47.6135923642  MEMB      28              0.0000000000
      3826        34  POPC      C316           45.8245022314       55.9428775596       47.0456296761  MEMB      28              0.0000000000
      3827        34  POPC      H16X           45.9753228618       56.3592255579       46.0258121871  MEMB      28              0.0000000000
      3828        34  POPC      H16Y           45.1280622905       55.0796238416       46.9749684433  MEMB      28              0.0000000000
      3829        34  POPC      H16Z           46.8057700747       55.5789927030       47.4199496709  MEMB      28              0.0000000000
      3830        35  POPC      N              13.0577281108       17.8864677516       66.2837982025  MEMB      29              0.0000000000
      3831        35  POPC      C12            13.2523969225       17.5943492023       64.7951920182  MEMB      29              0.0000000000
      3832        35  POPC      H12A           12.3506286887       17.8183419894       64.2511310236  MEMB      29              0.0000000000
      3833        35  POPC      H12B           13.4223529116       16.5259551674       64.6740418147  MEMB      29              0.0000000000
      3834        35  POPC      C13            12.0792186003       16.9872751082       66.9785798730  MEMB      29              0.0000000000
      3835        35  POPC      H13A           11.9574510278       17.3267875607       68.0086462041  MEMB      29              0.0000000000
      3836        35  POPC      H13B           11.0974518821       16.9952168841       66.5327478622  MEMB      29              0.0000000000
      3837        35  POPC      H13C           12.4586302195       15.9685518970       67.0688712751  MEMB      29              0.0000000000
      3838        35  POPC      C14            14.3685650821       17.6159725486       66.9462820051  MEMB      29              0.0000000000
      3839        35  POPC      H14A           14.6832514497       16.5755248185       66.8369942373  MEMB      29              0.0000000000
      3840        35  POPC      H14B           15.1308399552       18.1909649589       66.4225881467  MEMB      29              0.0000000000
      3841        35  POPC      H14C           14.3623750711       17.8636612147       67.9939329305  MEMB      29              0.0000000000
      3842        35  POPC      C15            12.6845608242       19.3073148238       66.5421160023  MEMB      29              0.0000000000
      3843        35  POPC      H15A           13.3751598777       19.9928402032       66.0685376873  MEMB      29              0.0000000000
      3844        35  POPC      H15B           12.7483572585       19.5217076819       67.6114140331  MEMB      29              0.0000000000
      3845        35  POPC      H15C           11.6636483872       19.5449683372       66.2618990666  MEMB      29              0.0000000000
      3846        35  POPC      C11            14.4669006092       18.1978281598       64.0172237993  MEMB      29              0.0000000000
      3847        35  POPC      H11A           14.4514106520       19.3052816429       64.1065571660  MEMB      29              0.0000000000
      3848        35  POPC      H11B           14.3500373465       17.9616651950       62.9331290041  MEMB      29              0.0000000000
      3849        35  POPC      P              16.2613129398       16.2199830125       64.3157944109  MEMB      29              0.0000000000
      3850        35  POPC      O13            16.6709369308       15.8304296830       65.6797181506  MEMB      29              0.0000000000
      3851        35  POPC      O14            17.2840163618       16.1477573516       63.2516928538  MEMB      29              0.0000000000
      3852        35  POPC      O12            15.7349260473       17.7218747076       64.4595020978  MEMB      29              0.0000000000
      3853        35  POPC      O11            14.9292392919       15.4619041550       63.8967918347  MEMB      29              0.0000000000
      3854        35  POPC      C1             14.2718676647       14.5666329014       64.7948932081  MEMB      29              0.0000000000
      3855        35  POPC      HA             13.8830158949       15.0959925204       65.6874954221  MEMB      29              0.0000000000
      3856        35  POPC      HB             14.9939389914       13.8164575214       65.1968065667  MEMB      29              0.0000000000
      3857        35  POPC      C2             13.0774682395       13.8436145692       64.0816661225  MEMB      29              0.0000000000
      3858        35  POPC      HS             12.7504656453       13.0159145075       64.7516456891  MEMB      29              0.0000000000
      3859        35  POPC      O21            13.4376714224       13.3002877514       62.8033727058  MEMB      29              0.0000000000
      3860        35  POPC      C21            14.6272070821       12.7281825661       62.7562397352  MEMB      29              0.0000000000
      3861        35  POPC      O22            15.1530255012       12.0969361863       63.6562295435  MEMB      29              0.0000000000
      3862        35  POPC      C22            15.2255815735       12.8977765274       61.3751305618  MEMB      29              0.0000000000
      3863        35  POPC      H2R            14.5611732957       13.5241203217       60.7432032143  MEMB      29              0.0000000000
      3864        35  POPC      H2S            15.3154305181       11.9022385217       60.9041144700  MEMB      29              0.0000000000
      3865        35  POPC      C3             11.8362296022       14.7668580388       63.8330401307  MEMB      29              0.0000000000
      3866        35  POPC      HX             11.5413471943       15.2330375200       64.7956349096  MEMB      29              0.0000000000
      3867        35  POPC      HY             10.9994240309       14.1088627545       63.5080531481  MEMB      29              0.0000000000
      3868        35  POPC      O31            12.1202105686       15.7820765265       62.8409232565  MEMB      29              0.0000000000
      3869        35  POPC      C31            11.1218574872       16.1772289164       62.0543006691  MEMB      29              0.0000000000
      3870        35  POPC      O32             9.9339023443       16.0736446454       62.3178406338  MEMB      29              0.0000000000
      3871        35  POPC      C32            11.7103340072       17.0094812386       60.9268450696  MEMB      29              0.0000000000
      3872        35  POPC      H2X            12.3564006448       17.7978309048       61.3676154389  MEMB      29              0.0000000000
      3873        35  POPC      H2Y            10.8691555895       17.4932263065       60.3880782976  MEMB      29              0.0000000000
      3874        35  POPC      C23            16.5940018184       13.5785556586       61.5227699901  MEMB      29              0.0000000000
      3875        35  POPC      H3R            17.1157283750       13.3224081188       62.4772338598  MEMB      29              0.0000000000
      3876        35  POPC      H3S            16.4020044639       14.6757405148       61.5679237495  MEMB      29              0.0000000000
      3877        35  POPC      C24            17.5673654912       13.2974308490       60.3825715484  MEMB      29              0.0000000000
      3878        35  POPC      H4R            17.0182446063       12.9795594477       59.4682563779  MEMB      29              0.0000000000
      3879        35  POPC      H4S            18.2331188232       12.4665746636       60.6909169049  MEMB      29              0.0000000000
      3880        35  POPC      C25            18.3809899170       14.5605664680       60.0733902944  MEMB      29              0.0000000000
      3881        35  POPC      H5R            19.3010519300       14.2862969938       59.5192716665  MEMB      29              0.0000000000
      3882        35  POPC      H5S            18.7126515503       15.0439305808       61.0224340799  MEMB      29              0.0000000000
      3883        35  POPC      C26            17.5252933473       15.5596113622       59.2798871250  MEMB      29              0.0000000000
      3884        35  POPC      H6R            17.0086579286       16.2445488126       59.9909302793  MEMB      29              0.0000000000
      3885        35  POPC      H6S            16.7285013955       14.9993224708       58.7372107783  MEMB      29              0.0000000000
      3886        35  POPC      C27            18.2930292978       16.3623686677       58.2253334011  MEMB      29              0.0000000000
      3887        35  POPC      H7R            19.0921017580       16.9582634788       58.7172130910  MEMB      29              0.0000000000
      3888        35  POPC      H7S            17.5540411953       17.0606668344       57.7722027612  MEMB      29              0.0000000000
      3889        35  POPC      C28            18.8873351454       15.4707983808       57.1268392032  MEMB      29              0.0000000000
      3890        35  POPC      H8R            18.1373809324       14.6811325891       56.8998613618  MEMB      29              0.0000000000
      3891        35  POPC      H8S            19.7827686944       14.9572245688       57.5329755550  MEMB      29              0.0000000000
      3892        35  POPC      C29            19.2786041455       16.2213059013       55.8862180409  MEMB      29              0.0000000000
      3893        35  POPC      H91            20.2673311219       16.7024340889       55.9239044730  MEMB      29              0.0000000000
      3894        35  POPC      C210           18.5388261258       16.3616565776       54.7771288032  MEMB      29              0.0000000000
      3895        35  POPC      H101           18.9610516910       16.9290197935       53.9461114635  MEMB      29              0.0000000000
      3896        35  POPC      C211           17.1633963854       15.8210075805       54.4936997587  MEMB      29              0.0000000000
      3897        35  POPC      H11R           16.4406195009       16.6585971629       54.3691304261  MEMB      29              0.0000000000
      3898        35  POPC      H11S           16.7789902742       15.1785605232       55.3162904588  MEMB      29              0.0000000000
      3899        35  POPC      C212           17.2004208227       15.0186917054       53.1866291498  MEMB      29              0.0000000000
      3900        35  POPC      H12R           17.9176208997       14.1759386202       53.3035885221  MEMB      29              0.0000000000
      3901        35  POPC      H12S           17.5626754104       15.6565804996       52.3489985671  MEMB      29              0.0000000000
      3902        35  POPC      C213           15.8280185962       14.4501201132       52.8188788973  MEMB      29              0.0000000000
      3903        35  POPC      H13R           15.1569809874       15.2587877760       52.4591653014  MEMB      29              0.0000000000
      3904        35  POPC      H13S           15.3763344458       14.0263223524       53.7470260083  MEMB      29              0.0000000000
      3905        35  POPC      C214           15.9262891811       13.3136812364       51.7975825653  MEMB      29              0.0000000000
      3906        35  POPC      H14R           14.9685298190       12.7496552659       51.8011303528  MEMB      29              0.0000000000
      3907        35  POPC      H14S           16.7195453415       12.6236687733       52.1526137454  MEMB      29              0.0000000000
      3908        35  POPC      C215           16.2379348221       13.7352621451       50.3521513917  MEMB      29              0.0000000000
      3909        35  POPC      H15R           16.5698614370       12.8291362516       49.8014211586  MEMB      29              0.0000000000
      3910        35  POPC      H15S           17.0741343339       14.4651178434       50.3259366600  MEMB      29              0.0000000000
      3911        35  POPC      C216           14.9965696903       14.2938651245       49.6474759631  MEMB      29              0.0000000000
      3912        35  POPC      H16R           14.8154653100       15.3079839171       50.0581073466  MEMB      29              0.0000000000
      3913        35  POPC      H16S           14.1265884193       13.6607667278       49.9204928616  MEMB      29              0.0000000000
      3914        35  POPC      C217           15.0415805850       14.3615761081       48.1121269765  MEMB      29              0.0000000000
      3915        35  POPC      H17R           15.8064297704       15.1069635251       47.8205291621  MEMB      29              0.0000000000
      3916        35  POPC      H17S           14.0682611128       14.7693750397       47.7582972066  MEMB      29              0.0000000000
      3917        35  POPC      C218           15.2946040624       13.0294575486       47.3904710315  MEMB      29              0.0000000000
      3918        35  POPC      H18R           15.2511866278       13.1716441506       46.2898373154  MEMB      29              0.0000000000
      3919        35  POPC      H18S           14.5297418521       12.2775790756       47.6737682572  MEMB      29              0.0000000000
      3920        35  POPC      H18T           16.2938806995       12.6184694615       47.6447930836  MEMB      29              0.0000000000
      3921        35  POPC      C33            12.5346920760       16.1833391716       59.9164069926  MEMB      29              0.0000000000
      3922        35  POPC      H3X            11.8486249772       15.4887618649       59.3815336620  MEMB      29              0.0000000000
      3923        35  POPC      H3Y            13.3058729907       15.5621966670       60.4265623405  MEMB      29              0.0000000000
      3924        35  POPC      C34            13.2254507790       17.0977363161       58.8971774246  MEMB      29              0.0000000000
      3925        35  POPC      H4X            14.0711940012       17.6254202986       59.3928884819  MEMB      29              0.0000000000
      3926        35  POPC      H4Y            12.5029675178       17.8743149368       58.5538402754  MEMB      29              0.0000000000
      3927        35  POPC      C35            13.7415460979       16.3575477257       57.6588258756  MEMB      29              0.0000000000
      3928        35  POPC      H5X            14.4563632403       15.5578277580       57.9526288506  MEMB      29              0.0000000000
      3929        35  POPC      H5Y            14.2960890906       17.0871714632       57.0250627063  MEMB      29              0.0000000000
      3930        35  POPC      C36            12.5993185162       15.7585704656       56.8315235330  MEMB      29              0.0000000000
      3931        35  POPC      H6X            11.7252132407       16.4506742973       56.8764470454  MEMB      29              0.0000000000
      3932        35  POPC      H6Y            12.2815688448       14.7875343607       57.2744399670  MEMB      29              0.0000000000
      3933        35  POPC      C37            12.9723244154       15.5805208386       55.3568079631  MEMB      29              0.0000000000
      3934        35  POPC      H7X            13.8597124015       14.9167076850       55.2655622332  MEMB      29              0.0000000000
      3935        35  POPC      H7Y            13.2458541873       16.5763975829       54.9424471866  MEMB      29              0.0000000000
      3936        35  POPC      C38            11.7987496169       14.9973423552       54.5668132901  MEMB      29              0.0000000000
      3937        35  POPC      H8X            10.8856548650       15.6008980031       54.7719531010  MEMB      29              0.0000000000
      3938        35  POPC      H8Y            11.6226980908       13.9686643533       54.9505341343  MEMB      29              0.0000000000
      3939        35  POPC      C39            12.0127491005       14.9262934323       53.0519228991  MEMB      29              0.0000000000
      3940        35  POPC      H9X            11.1121874102       14.4553109891       52.5945795629  MEMB      29              0.0000000000
      3941        35  POPC      H9Y            12.8756571893       14.2577007623       52.8347084787  MEMB      29              0.0000000000
      3942        35  POPC      C310           12.2445120391       16.2899179240       52.3785029968  MEMB      29              0.0000000000
      3943        35  POPC      H10X           13.2439351365       16.6736840374       52.6821209168  MEMB      29              0.0000000000
      3944        35  POPC      H10Y           11.4777924205       17.0239057623       52.7096143293  MEMB      29              0.0000000000
      3945        35  POPC      C311           12.1952995178       16.1433782481       50.8546498002  MEMB      29              0.0000000000
      3946        35  POPC      H11X           11.1451045737       16.0942415837       50.4950807038  MEMB      29              0.0000000000
      3947        35  POPC      H11Y           12.6530502184       15.1536493299       50.6314643213  MEMB      29              0.0000000000
      3948        35  POPC      C312           12.9973273724       17.1794086223       50.0552823117  MEMB      29              0.0000000000
      3949        35  POPC      H12X           13.3579408849       16.6510759913       49.1437833527  MEMB      29              0.0000000000
      3950        35  POPC      H12Y           13.8959341135       17.5096617188       50.6185804585  MEMB      29              0.0000000000
      3951        35  POPC      C313           12.1705053742       18.3780396344       49.5909128699  MEMB      29              0.0000000000
      3952        35  POPC      H13X           12.0166236730       19.0557648124       50.4579949662  MEMB      29              0.0000000000
      3953        35  POPC      H13Y           11.1669596427       18.0260502312       49.2586146624  MEMB      29              0.0000000000
      3954        35  POPC      C314           12.8127415402       19.1415921797       48.4202623163  MEMB      29              0.0000000000
      3955        35  POPC      H14X           13.8006903014       19.5508687313       48.7239921780  MEMB      29              0.0000000000
      3956        35  POPC      H14Y           12.1481458147       19.9974090985       48.1720295188  MEMB      29              0.0000000000
      3957        35  POPC      C315           12.9645191815       18.3190511458       47.1330688756  MEMB      29              0.0000000000
      3958        35  POPC      H15X           12.0204467332       17.7578398916       46.9682950556  MEMB      29              0.0000000000
      3959        35  POPC      H15Y           13.7765899857       17.5676748431       47.2473518805  MEMB      29              0.0000000000
      3960        35  POPC      C316           13.2443417037       19.1854576019       45.9063524029  MEMB      29              0.0000000000
      3961        35  POPC      H16X           13.3255273336       18.5624168321       44.9908849628  MEMB      29              0.0000000000
      3962        35  POPC      H16Y           14.1995126429       19.7385858013       46.0374415549  MEMB      29              0.0000000000
      3963        35  POPC      H16Z           12.4236917355       19.9211859867       45.7575219735  MEMB      29              0.0000000000
      3964        36  POPC      N              38.9522361739        6.4908869053       64.1370477417  MEMB      30              0.0000000000
      3965        36  POPC      C12            37.6952737342        7.2672039356       64.4965243668  MEMB      30              0.0000000000
      3966        36  POPC      H12A           36.8412296892        6.5882119179       64.5310828721  MEMB      30              0.0000000000
      3967        36  POPC      H12B           37.4825778267        7.9619648173       63.6964009051  MEMB      30              0.0000000000
      3968        36  POPC      C13            39.4234123490        5.7793390618       65.3683243042  MEMB      30              0.0000000000
      3969        36  POPC      H13A           39.7282697219        6.5435644393       66.0799281473  MEMB      30              0.0000000000
      3970        36  POPC      H13B           38.6069027656        5.2197453839       65.8066824905  MEMB      30              0.0000000000
      3971        36  POPC      H13C           40.2358840468        5.1085070023       65.1218329526  MEMB      30              0.0000000000
      3972        36  POPC      C14            38.7138398848        5.4834364688       63.0764532176  MEMB      30              0.0000000000
      3973        36  POPC      H14A           38.3315491904        5.9209077622       62.1619184344  MEMB      30              0.0000000000
      3974        36  POPC      H14B           39.6144409908        4.9162628704       62.8383197968  MEMB      30              0.0000000000
      3975        36  POPC      H14C           37.9929662253        4.7442047216       63.4000053371  MEMB      30              0.0000000000
      3976        36  POPC      C15            40.0022595270        7.4673589491       63.6910374366  MEMB      30              0.0000000000
      3977        36  POPC      H15A           40.2388923540        8.1473033958       64.5145313069  MEMB      30              0.0000000000
      3978        36  POPC      H15B           39.6197907672        8.0911408456       62.8931865920  MEMB      30              0.0000000000
      3979        36  POPC      H15C           40.9123157340        6.9876909985       63.3789821533  MEMB      30              0.0000000000
      3980        36  POPC      C11            37.7217225245        8.1183393786       65.7962588132  MEMB      30              0.0000000000
      3981        36  POPC      H11A           37.3506485205        7.4776351590       66.6105539239  MEMB      30              0.0000000000
      3982        36  POPC      H11B           36.9536351394        8.9276134469       65.6970785747  MEMB      30              0.0000000000
      3983        36  POPC      P              39.3397743713       10.1363878675       66.3511529323  MEMB      30              0.0000000000
      3984        36  POPC      O13            40.7018835890       10.3979973244       65.8569559069  MEMB      30              0.0000000000
      3985        36  POPC      O14            39.1210254003       10.4507201657       67.7868315913  MEMB      30              0.0000000000
      3986        36  POPC      O12            39.0328237898        8.5922839402       66.1405789039  MEMB      30              0.0000000000
      3987        36  POPC      O11            38.2661025056       10.7773118824       65.3766539034  MEMB      30              0.0000000000
      3988        36  POPC      C1             38.6858401972       11.0598966580       64.0239887473  MEMB      30              0.0000000000
      3989        36  POPC      HA             39.5150457259       10.4062491142       63.6611752409  MEMB      30              0.0000000000
      3990        36  POPC      HB             39.0707661856       12.1016676813       63.9953806938  MEMB      30              0.0000000000
      3991        36  POPC      C2             37.5536294421       10.9445831399       62.9586529899  MEMB      30              0.0000000000
      3992        36  POPC      HS             36.6326170720       11.3811902216       63.4027002245  MEMB      30              0.0000000000
      3993        36  POPC      O21            37.3746280759        9.5362171004       62.6303721933  MEMB      30              0.0000000000
      3994        36  POPC      C21            36.7645348573        9.2051904716       61.5027499997  MEMB      30              0.0000000000
      3995        36  POPC      O22            36.0775392425        9.9283034597       60.8143382471  MEMB      30              0.0000000000
      3996        36  POPC      C22            37.1308823542        7.7632102894       61.1509346371  MEMB      30              0.0000000000
      3997        36  POPC      H2R            36.8157114756        7.1247598770       61.9962255494  MEMB      30              0.0000000000
      3998        36  POPC      H2S            38.2308417624        7.7031883478       61.0211922882  MEMB      30              0.0000000000
      3999        36  POPC      C3             37.9505415856       11.8243166378       61.7189721606  MEMB      30              0.0000000000
      4000        36  POPC      HX             38.2865688558       12.8147133530       62.0981352311  MEMB      30              0.0000000000
      4001        36  POPC      HY             37.0412607083       12.0276444168       61.1094619636  MEMB      30              0.0000000000
      4002        36  POPC      O31            39.0264982675       11.2080144813       60.9785496456  MEMB      30              0.0000000000
      4003        36  POPC      C31            38.9002243017       11.1735098405       59.6556786217  MEMB      30              0.0000000000
      4004        36  POPC      O32            38.0353274180       11.7064459752       58.9909927721  MEMB      30              0.0000000000
      4005        36  POPC      C32            39.9970359006       10.2397240226       59.1264820044  MEMB      30              0.0000000000
      4006        36  POPC      H2X            39.7877274973        9.2104659866       59.4848905824  MEMB      30              0.0000000000
      4007        36  POPC      H2Y            40.9520053547       10.5760310303       59.5806612452  MEMB      30              0.0000000000
      4008        36  POPC      C23            36.4309089464        7.2503307279       59.8797679141  MEMB      30              0.0000000000
      4009        36  POPC      H3R            35.3425750030        7.4743554725       59.9140287543  MEMB      30              0.0000000000
      4010        36  POPC      H3S            36.5442517259        6.1432893067       59.8371486550  MEMB      30              0.0000000000
      4011        36  POPC      C24            37.0405088860        7.8247953637       58.6062580607  MEMB      30              0.0000000000
      4012        36  POPC      H4R            38.1082398905        7.5121097836       58.5313881857  MEMB      30              0.0000000000
      4013        36  POPC      H4S            37.0177927445        8.9393885628       58.6384560400  MEMB      30              0.0000000000
      4014        36  POPC      C25            36.2915490157        7.3762718241       57.3506351256  MEMB      30              0.0000000000
      4015        36  POPC      H5R            35.2784833898        7.8299586051       57.3236184953  MEMB      30              0.0000000000
      4016        36  POPC      H5S            36.1588510074        6.2751041901       57.3596866275  MEMB      30              0.0000000000
      4017        36  POPC      C26            37.0660320351        7.8269764060       56.1141135737  MEMB      30              0.0000000000
      4018        36  POPC      H6R            38.0535217883        7.3146686329       56.1007803967  MEMB      30              0.0000000000
      4019        36  POPC      H6S            37.2552202575        8.9196636855       56.2140958761  MEMB      30              0.0000000000
      4020        36  POPC      C27            36.3505298498        7.5608706150       54.7862950530  MEMB      30              0.0000000000
      4021        36  POPC      H7R            35.3956047348        8.1313034334       54.7512819365  MEMB      30              0.0000000000
      4022        36  POPC      H7S            36.0948630674        6.4779989913       54.7292432607  MEMB      30              0.0000000000
      4023        36  POPC      C28            37.2383287701        7.9259107557       53.5827220904  MEMB      30              0.0000000000
      4024        36  POPC      H8R            36.7285366807        7.5799838014       52.6565581191  MEMB      30              0.0000000000
      4025        36  POPC      H8S            38.1729477596        7.3282683255       53.6501840119  MEMB      30              0.0000000000
      4026        36  POPC      C29            37.5767441156        9.4009532127       53.5462250565  MEMB      30              0.0000000000
      4027        36  POPC      H91            38.0694647930        9.8022818477       54.4435352492  MEMB      30              0.0000000000
      4028        36  POPC      C210           37.3452120627       10.2412379038       52.5307481377  MEMB      30              0.0000000000
      4029        36  POPC      H101           37.6578856469       11.2936873114       52.6075512961  MEMB      30              0.0000000000
      4030        36  POPC      C211           36.6996254189        9.8326601083       51.2436588137  MEMB      30              0.0000000000
      4031        36  POPC      H11R           37.1854361815        8.9074886189       50.8550673437  MEMB      30              0.0000000000
      4032        36  POPC      H11S           36.8671694409       10.6218378615       50.4781969394  MEMB      30              0.0000000000
      4033        36  POPC      C212           35.1888015918        9.5668175056       51.3914649665  MEMB      30              0.0000000000
      4034        36  POPC      H12R           34.6714485030       10.5448152799       51.5115469313  MEMB      30              0.0000000000
      4035        36  POPC      H12S           34.9617185337        8.9635919203       52.2986416432  MEMB      30              0.0000000000
      4036        36  POPC      C213           34.6130757862        8.8350992329       50.1720798413  MEMB      30              0.0000000000
      4037        36  POPC      H13R           33.5026804593        8.8722343519       50.2189110489  MEMB      30              0.0000000000
      4038        36  POPC      H13S           34.9198294402        7.7653504471       50.1906632175  MEMB      30              0.0000000000
      4039        36  POPC      C214           35.0999661404        9.4712686119       48.8704951656  MEMB      30              0.0000000000
      4040        36  POPC      H14R           36.1975693119        9.3148785796       48.7594769684  MEMB      30              0.0000000000
      4041        36  POPC      H14S           34.9105750798       10.5655012396       48.9442097025  MEMB      30              0.0000000000
      4042        36  POPC      C215           34.4366419213        8.9146145604       47.6163763082  MEMB      30              0.0000000000
      4043        36  POPC      H15R           33.3483688923        9.1166123539       47.6546696573  MEMB      30              0.0000000000
      4044        36  POPC      H15S           34.5681529685        7.8098962106       47.5994208706  MEMB      30              0.0000000000
      4045        36  POPC      C216           35.0563039027        9.5174025589       46.3474360573  MEMB      30              0.0000000000
      4046        36  POPC      H16R           34.5634715798        9.0730633830       45.4561742366  MEMB      30              0.0000000000
      4047        36  POPC      H16S           36.1306922711        9.2431557447       46.3320794460  MEMB      30              0.0000000000
      4048        36  POPC      C217           34.9372177080       11.0348325844       46.2374182686  MEMB      30              0.0000000000
      4049        36  POPC      H17R           35.5517713535       11.3863304187       45.3780338109  MEMB      30              0.0000000000
      4050        36  POPC      H17S           35.3532617353       11.5251700171       47.1432367825  MEMB      30              0.0000000000
      4051        36  POPC      C218           33.4919307440       11.4591999992       46.0285534761  MEMB      30              0.0000000000
      4052        36  POPC      H18R           33.2232561526       11.3857716108       44.9526757110  MEMB      30              0.0000000000
      4053        36  POPC      H18S           33.3240976832       12.4961011381       46.3757794037  MEMB      30              0.0000000000
      4054        36  POPC      H18T           32.8063513682       10.8103186524       46.5985765982  MEMB      30              0.0000000000
      4055        36  POPC      C33            40.1545325857       10.2277195696       57.5828963083  MEMB      30              0.0000000000
      4056        36  POPC      H3X            40.1726954146       11.2686595992       57.1859640307  MEMB      30              0.0000000000
      4057        36  POPC      H3Y            39.2803106866        9.7092988557       57.1336601923  MEMB      30              0.0000000000
      4058        36  POPC      C34            41.4664017489        9.5328287888       57.1859394283  MEMB      30              0.0000000000
      4059        36  POPC      H4X            41.5327613167        8.5912848499       57.7720527789  MEMB      30              0.0000000000
      4060        36  POPC      H4Y            42.3185823129       10.1784330134       57.4984839920  MEMB      30              0.0000000000
      4061        36  POPC      C35            41.6245626046        9.1760085722       55.6979843697  MEMB      30              0.0000000000
      4062        36  POPC      H5X            42.6584711311        8.7853984028       55.5579239316  MEMB      30              0.0000000000
      4063        36  POPC      H5Y            41.5210832754       10.0842197150       55.0668522913  MEMB      30              0.0000000000
      4064        36  POPC      C36            40.6327385309        8.0948773263       55.2470883399  MEMB      30              0.0000000000
      4065        36  POPC      H6X            39.6553413966        8.5762952551       55.0586550947  MEMB      30              0.0000000000
      4066        36  POPC      H6Y            40.4823568674        7.3782426554       56.0867231573  MEMB      30              0.0000000000
      4067        36  POPC      C37            41.0535125892        7.2708527946       54.0188602111  MEMB      30              0.0000000000
      4068        36  POPC      H7X            40.2569366161        6.5146171656       53.8321455041  MEMB      30              0.0000000000
      4069        36  POPC      H7Y            41.9794787315        6.7133290162       54.2562736905  MEMB      30              0.0000000000
      4070        36  POPC      C38            41.2823161037        8.0599803015       52.7210617551  MEMB      30              0.0000000000
      4071        36  POPC      H8X            42.2137993868        8.6608960073       52.8053182713  MEMB      30              0.0000000000
      4072        36  POPC      H8Y            40.4347698853        8.7645487733       52.5681620302  MEMB      30              0.0000000000
      4073        36  POPC      C39            41.3645568960        7.1149106418       51.5078222213  MEMB      30              0.0000000000
      4074        36  POPC      H9X            40.3803429374        6.6045256664       51.4136030019  MEMB      30              0.0000000000
      4075        36  POPC      H9Y            42.1343496874        6.3337624184       51.6992949402  MEMB      30              0.0000000000
      4076        36  POPC      C310           41.6951149840        7.8237785894       50.1840514328  MEMB      30              0.0000000000
      4077        36  POPC      H10X           42.7691802240        8.1178972262       50.2073495899  MEMB      30              0.0000000000
      4078        36  POPC      H10Y           41.0971424860        8.7568812557       50.1099882298  MEMB      30              0.0000000000
      4079        36  POPC      C311           41.4456851713        6.9523849524       48.9348146745  MEMB      30              0.0000000000
      4080        36  POPC      H11X           41.8712733336        5.9408404838       49.1189616570  MEMB      30              0.0000000000
      4081        36  POPC      H11Y           41.9974742809        7.3805507806       48.0683904945  MEMB      30              0.0000000000
      4082        36  POPC      C312           39.9619076994        6.8125323274       48.5411255157  MEMB      30              0.0000000000
      4083        36  POPC      H12X           39.3827294978        6.4926836040       49.4358731869  MEMB      30              0.0000000000
      4084        36  POPC      H12Y           39.8566673249        6.0077338104       47.7811510332  MEMB      30              0.0000000000
      4085        36  POPC      C313           39.3173895592        8.0939882414       47.9803286203  MEMB      30              0.0000000000
      4086        36  POPC      H13X           39.4764146240        8.9299108068       48.6939460639  MEMB      30              0.0000000000
      4087        36  POPC      H13Y           38.2184669458        7.9351044361       47.9162039203  MEMB      30              0.0000000000
      4088        36  POPC      C314           39.8176882866        8.4924503697       46.5825761346  MEMB      30              0.0000000000
      4089        36  POPC      H14X           39.7894854810        7.6024862616       45.9138885112  MEMB      30              0.0000000000
      4090        36  POPC      H14Y           40.8766061751        8.8185140589       46.6513441091  MEMB      30              0.0000000000
      4091        36  POPC      C315           38.9917834351        9.6163349174       45.9325585128  MEMB      30              0.0000000000
      4092        36  POPC      H15X           38.0446980968        9.1782596739       45.5496627486  MEMB      30              0.0000000000
      4093        36  POPC      H15Y           39.5388309797       10.0049951841       45.0483683416  MEMB      30              0.0000000000
      4094        36  POPC      C316           38.6703176844       10.7965040159       46.8490724416  MEMB      30              0.0000000000
      4095        36  POPC      H16X           38.1437580907       11.5941158050       46.2813923402  MEMB      30              0.0000000000
      4096        36  POPC      H16Y           39.6043020453       11.2202640220       47.2773234110  MEMB      30              0.0000000000
      4097        36  POPC      H16Z           38.0099620979       10.4840750955       47.6850221750  MEMB      30              0.0000000000
      4098        37  POPS      N              34.4037108112       59.2152287976       66.6575186585  MEMB      31              0.0000000000
      4099        37  POPS      HN1            33.4502004428       59.2360518565       66.2159295246  MEMB      31              0.0000000000
      4100        37  POPS      HN2            34.3646133119       58.8483581903       67.6283742129  MEMB      31              0.0000000000
      4101        37  POPS      HN3            34.7281649936       60.1955597140       66.6869781802  MEMB      31              0.0000000000
      4102        37  POPS      C12            35.3864379619       58.4901847709       65.7901533906  MEMB      31              0.0000000000
      4103        37  POPS      H12A           35.0042724506       57.4896079349       65.6244335602  MEMB      31              0.0000000000
      4104        37  POPS      C13            36.7851766262       58.3696053997       66.4557301261  MEMB      31              0.0000000000
      4105        37  POPS      O13A           36.9136806602       58.7265114661       67.6628159240  MEMB      31              0.0000000000
      4106        37  POPS      O13B           37.7339669945       57.8616922696       65.8069974581  MEMB      31              0.0000000000
      4107        37  POPS      C11            35.4589897361       59.2094463708       64.4144845290  MEMB      31              0.0000000000
      4108        37  POPS      H11A           35.9939732216       58.5233806630       63.7112325453  MEMB      31              0.0000000000
      4109        37  POPS      H11B           36.0498485277       60.1505136991       64.4983156504  MEMB      31              0.0000000000
      4110        37  POPS      P              33.8268330677       59.9589829430       62.4762086764  MEMB      31              0.0000000000
      4111        37  POPS      O13            32.3860370838       59.9212162664       62.1940968555  MEMB      31              0.0000000000
      4112        37  POPS      O14            34.7606767000       59.2368533599       61.5927861195  MEMB      31              0.0000000000
      4113        37  POPS      O12            34.1285912245       59.4836564045       63.9641840542  MEMB      31              0.0000000000
      4114        37  POPS      O11            34.2579115116       61.4670633355       62.5974099396  MEMB      31              0.0000000000
      4115        37  POPS      C1             33.7706601391       62.2613760295       63.6836500256  MEMB      31              0.0000000000
      4116        37  POPS      HA             34.1709206926       61.8983222850       64.6564420749  MEMB      31              0.0000000000
      4117        37  POPS      HB             32.6565177705       62.2185447276       63.7303815362  MEMB      31              0.0000000000
      4118        37  POPS      C2             34.1980454431       63.7425832143       63.4889946552  MEMB      31              0.0000000000
      4119        37  POPS      HS             33.5940675460       64.3846267814       64.1685060827  MEMB      31              0.0000000000
      4120        37  POPS      O21            34.0084219290       64.1253794323       62.1218595013  MEMB      31              0.0000000000
      4121        37  POPS      C21            32.7697842496       64.0900719395       61.7085748452  MEMB      31              0.0000000000
      4122        37  POPS      O22            31.7880877257       64.2875957896       62.4151805343  MEMB      31              0.0000000000
      4123        37  POPS      C22            32.7059465886       63.9618099832       60.1886648345  MEMB      31              0.0000000000
      4124        37  POPS      H2R            32.6606393379       64.9834591382       59.7609450402  MEMB      31              0.0000000000
      4125        37  POPS      H2S            31.7505677888       63.4440253421       59.9619143442  MEMB      31              0.0000000000
      4126        37  POPS      C3             35.6893245666       63.9596070082       63.8703119178  MEMB      31              0.0000000000
      4127        37  POPS      HX             35.7504429625       63.7727693964       64.9614636590  MEMB      31              0.0000000000
      4128        37  POPS      HY             35.9982595487       65.0147461774       63.6924788760  MEMB      31              0.0000000000
      4129        37  POPS      O31            36.5661436246       63.0164396550       63.2393676185  MEMB      31              0.0000000000
      4130        37  POPS      C31            36.8213072362       63.2221685426       61.9477408210  MEMB      31              0.0000000000
      4131        37  POPS      O32            36.5623981548       64.2317785481       61.3143681222  MEMB      31              0.0000000000
      4132        37  POPS      C32            37.4992888063       61.9518417574       61.4154040396  MEMB      31              0.0000000000
      4133        37  POPS      H2X            36.9153975647       61.0931485238       61.8159942686  MEMB      31              0.0000000000
      4134        37  POPS      H2Y            38.5111980282       61.9101600028       61.8650406986  MEMB      31              0.0000000000
      4135        37  POPS      C23            33.8614753890       63.1832548080       59.5109867375  MEMB      31              0.0000000000
      4136        37  POPS      H3R            34.0917220087       62.2473196697       60.0702893659  MEMB      31              0.0000000000
      4137        37  POPS      H3S            34.7836639446       63.8061506146       59.4962100495  MEMB      31              0.0000000000
      4138        37  POPS      C24            33.4331883501       62.8265956756       58.0841740307  MEMB      31              0.0000000000
      4139        37  POPS      H4R            32.8467774037       63.6915954436       57.6973990089  MEMB      31              0.0000000000
      4140        37  POPS      H4S            32.7651867794       61.9394877684       58.1296880786  MEMB      31              0.0000000000
      4141        37  POPS      C25            34.5408852793       62.5530959460       57.0641578451  MEMB      31              0.0000000000
      4142        37  POPS      H5R            34.8934204388       61.5047169841       57.1817142963  MEMB      31              0.0000000000
      4143        37  POPS      H5S            35.4057035323       63.2287521862       57.2473402350  MEMB      31              0.0000000000
      4144        37  POPS      C26            34.0206535294       62.7715542193       55.6335265203  MEMB      31              0.0000000000
      4145        37  POPS      H6R            33.7005413542       63.8326605859       55.5331630924  MEMB      31              0.0000000000
      4146        37  POPS      H6S            33.1262364032       62.1312494654       55.4608845011  MEMB      31              0.0000000000
      4147        37  POPS      C27            35.0675520521       62.4415239565       54.5644728198  MEMB      31              0.0000000000
      4148        37  POPS      H7R            35.2292477502       61.3449195185       54.5748432488  MEMB      31              0.0000000000
      4149        37  POPS      H7S            36.0336876758       62.9178076164       54.8231026941  MEMB      31              0.0000000000
      4150        37  POPS      C28            34.6678083498       62.8556441065       53.1413049286  MEMB      31              0.0000000000
      4151        37  POPS      H8R            33.6859321571       62.3849279294       52.9058932027  MEMB      31              0.0000000000
      4152        37  POPS      H8S            35.4142423482       62.4267897433       52.4344528957  MEMB      31              0.0000000000
      4153        37  POPS      C29            34.6397030705       64.3551976135       52.9940832570  MEMB      31              0.0000000000
      4154        37  POPS      H91            35.4133267191       64.8996012523       53.5576781901  MEMB      31              0.0000000000
      4155        37  POPS      C210           33.7771187161       65.0471240794       52.2358922099  MEMB      31              0.0000000000
      4156        37  POPS      H101           33.8542280651       66.1449768349       52.1938913674  MEMB      31              0.0000000000
      4157        37  POPS      C211           32.6862362612       64.4475785005       51.3932531744  MEMB      31              0.0000000000
      4158        37  POPS      H11R           32.0772858209       65.2737367127       50.9692740123  MEMB      31              0.0000000000
      4159        37  POPS      H11S           31.9972345541       63.8221551988       52.0053494918  MEMB      31              0.0000000000
      4160        37  POPS      C212           33.2181840509       63.5980947293       50.2233552844  MEMB      31              0.0000000000
      4161        37  POPS      H12R           33.6264131604       62.6343135474       50.5989664324  MEMB      31              0.0000000000
      4162        37  POPS      H12S           34.0501210002       64.1291007923       49.7161700639  MEMB      31              0.0000000000
      4163        37  POPS      C213           32.1180996696       63.3019514086       49.2017535120  MEMB      31              0.0000000000
      4164        37  POPS      H13R           31.6893001446       64.2579558433       48.8275757773  MEMB      31              0.0000000000
      4165        37  POPS      H13S           31.3136012450       62.7515772210       49.7370357668  MEMB      31              0.0000000000
      4166        37  POPS      C214           32.5788634329       62.4747119107       47.9958831289  MEMB      31              0.0000000000
      4167        37  POPS      H14R           33.6328924018       62.1604280354       48.1434526708  MEMB      31              0.0000000000
      4168        37  POPS      H14S           32.5600796593       63.1344672659       47.1003750367  MEMB      31              0.0000000000
      4169        37  POPS      C215           31.6858208321       61.2478498557       47.7439277278  MEMB      31              0.0000000000
      4170        37  POPS      H15R           31.8420631731       60.8682438357       46.7131693397  MEMB      31              0.0000000000
      4171        37  POPS      H15S           30.6210767309       61.5696636458       47.8112020972  MEMB      31              0.0000000000
      4172        37  POPS      C216           31.9299453145       60.0990100919       48.7367266533  MEMB      31              0.0000000000
      4173        37  POPS      H16R           31.1255753096       59.3397652189       48.6169337884  MEMB      31              0.0000000000
      4174        37  POPS      H16S           31.8536514319       60.5077315044       49.7693850633  MEMB      31              0.0000000000
      4175        37  POPS      C217           33.2839991440       59.3871784570       48.5742377758  MEMB      31              0.0000000000
      4176        37  POPS      H17R           33.4680673352       58.7952985692       49.5001543007  MEMB      31              0.0000000000
      4177        37  POPS      H17S           34.1041475684       60.1342868385       48.5042885118  MEMB      31              0.0000000000
      4178        37  POPS      C218           33.3594995543       58.4309930394       47.3793328065  MEMB      31              0.0000000000
      4179        37  POPS      H18R           33.2260005143       58.9770238312       46.4237163611  MEMB      31              0.0000000000
      4180        37  POPS      H18S           32.5636314632       57.6602271163       47.4507600478  MEMB      31              0.0000000000
      4181        37  POPS      H18T           34.3462563523       57.9205287944       47.3556055249  MEMB      31              0.0000000000
      4182        37  POPS      C33            37.5992404401       61.8167966918       59.8744831703  MEMB      31              0.0000000000
      4183        37  POPS      H3X            38.6759914869       61.7109242551       59.6069078490  MEMB      31              0.0000000000
      4184        37  POPS      H3Y            37.2195093864       62.7169444213       59.3426873405  MEMB      31              0.0000000000
      4185        37  POPS      C34            36.8444684920       60.5716233227       59.3862490483  MEMB      31              0.0000000000
      4186        37  POPS      H4X            35.7507178121       60.7729618453       59.4190620177  MEMB      31              0.0000000000
      4187        37  POPS      H4Y            37.0247382972       59.7325160516       60.0983159780  MEMB      31              0.0000000000
      4188        37  POPS      C35            37.2460566593       60.0958505522       57.9858640598  MEMB      31              0.0000000000
      4189        37  POPS      H5X            38.3252495612       59.8239404692       57.9904832705  MEMB      31              0.0000000000
      4190        37  POPS      H5Y            37.1084989889       60.9257697578       57.2610989478  MEMB      31              0.0000000000
      4191        37  POPS      C36            36.4254213466       58.8695389538       57.5487206290  MEMB      31              0.0000000000
      4192        37  POPS      H6X            35.3522642164       59.1517992066       57.4779645807  MEMB      31              0.0000000000
      4193        37  POPS      H6Y            36.5116319521       58.1003290736       58.3503435721  MEMB      31              0.0000000000
      4194        37  POPS      C37            36.8933178670       58.2472725495       56.2198772163  MEMB      31              0.0000000000
      4195        37  POPS      H7X            36.3735060248       57.2755958561       56.0657305978  MEMB      31              0.0000000000
      4196        37  POPS      H7Y            37.9792023203       58.0413934109       56.3043694723  MEMB      31              0.0000000000
      4197        37  POPS      C38            36.6361574988       59.1447655293       55.0033171394  MEMB      31              0.0000000000
      4198        37  POPS      H8X            37.0856868853       60.1450419015       55.1957095863  MEMB      31              0.0000000000
      4199        37  POPS      H8Y            35.5368929933       59.2750516813       54.8912292645  MEMB      31              0.0000000000
      4200        37  POPS      C39            37.2127070833       58.6227820232       53.6768797332  MEMB      31              0.0000000000
      4201        37  POPS      H9X            36.7146167969       57.6698858340       53.3961989499  MEMB      31              0.0000000000
      4202        37  POPS      H9Y            38.2981092498       58.4163154567       53.8116224384  MEMB      31              0.0000000000
      4203        37  POPS      C310           37.0457802184       59.6602731690       52.5523720517  MEMB      31              0.0000000000
      4204        37  POPS      H10X           37.5650512702       60.5922285771       52.8788765670  MEMB      31              0.0000000000
      4205        37  POPS      H10Y           35.9692104703       59.9102090645       52.4239913893  MEMB      31              0.0000000000
      4206        37  POPS      C311           37.6372899776       59.2287931935       51.2012388570  MEMB      31              0.0000000000
      4207        37  POPS      H11X           38.6009020206       58.6992912388       51.3691429323  MEMB      31              0.0000000000
      4208        37  POPS      H11Y           37.8557983232       60.1510743066       50.6158942270  MEMB      31              0.0000000000
      4209        37  POPS      C312           36.6867274442       58.3532646238       50.3668461074  MEMB      31              0.0000000000
      4210        37  POPS      H12X           35.8019400540       58.9618862979       50.0751482294  MEMB      31              0.0000000000
      4211        37  POPS      H12Y           36.3234126811       57.5136046587       51.0015041693  MEMB      31              0.0000000000
      4212        37  POPS      C313           37.3315076089       57.7516928586       49.1033849842  MEMB      31              0.0000000000
      4213        37  POPS      H13X           36.5734759029       57.1174706550       48.5905546424  MEMB      31              0.0000000000
      4214        37  POPS      H13Y           38.1646903927       57.0838411687       49.4172816157  MEMB      31              0.0000000000
      4215        37  POPS      C314           37.8745140095       58.7903511816       48.1058140333  MEMB      31              0.0000000000
      4216        37  POPS      H14X           38.5591368207       59.4886871992       48.6355308883  MEMB      31              0.0000000000
      4217        37  POPS      H14Y           37.0275619826       59.3875533016       47.7000782077  MEMB      31              0.0000000000
      4218        37  POPS      C315           38.6594100630       58.1667112828       46.9393066579  MEMB      31              0.0000000000
      4219        37  POPS      H15X           39.5006613789       57.5662252768       47.3545550542  MEMB      31              0.0000000000
      4220        37  POPS      H15Y           39.1089773740       58.9885688323       46.3365192077  MEMB      31              0.0000000000
      4221        37  POPS      C316           37.8179611175       57.2857515426       46.0119093768  MEMB      31              0.0000000000
      4222        37  POPS      H16X           37.3766067525       56.4327105527       46.5691490419  MEMB      31              0.0000000000
      4223        37  POPS      H16Y           38.4433418478       56.8795037706       45.1885355237  MEMB      31              0.0000000000
      4224        37  POPS      H16Z           36.9918320148       57.8796674634       45.5647647416  MEMB      31              0.0000000000
      4225        38  POPC      N              50.3252460046       50.9337902338       65.9670878635  MEMB      32              0.0000000000
      4226        38  POPC      C12            51.7004714874       50.8733769051       65.3031950808  MEMB      32              0.0000000000
      4227        38  POPC      H12A           51.8515188617       49.8565186544       64.9425273060  MEMB      32              0.0000000000
      4228        38  POPC      H12B           52.4345132652       51.0619203372       66.0715365170  MEMB      32              0.0000000000
      4229        38  POPC      C13            49.2900771271       50.9231208998       64.8722114286  MEMB      32              0.0000000000
      4230        38  POPC      H13A           48.2844977390       51.0386351467       65.2464849643  MEMB      32              0.0000000000
      4231        38  POPC      H13B           49.4688221461       51.8133179096       64.2448177416  MEMB      32              0.0000000000
      4232        38  POPC      H13C           49.4250468583       50.0516546053       64.2445847184  MEMB      32              0.0000000000
      4233        38  POPC      C14            50.1721167107       49.7807197847       66.9058413594  MEMB      32              0.0000000000
      4234        38  POPC      H14A           50.2441436773       48.8459513764       66.3466637645  MEMB      32              0.0000000000
      4235        38  POPC      H14B           50.9475585637       49.7938227804       67.6704884459  MEMB      32              0.0000000000
      4236        38  POPC      H14C           49.2311653388       49.8101957526       67.4474599550  MEMB      32              0.0000000000
      4237        38  POPC      C15            50.1494414045       52.2003905681       66.7126577056  MEMB      32              0.0000000000
      4238        38  POPC      H15A           49.2196440108       52.2118499984       67.2727783995  MEMB      32              0.0000000000
      4239        38  POPC      H15B           50.0857633045       53.0229382780       66.0002371505  MEMB      32              0.0000000000
      4240        38  POPC      H15C           50.9673373710       52.4006662087       67.3855216011  MEMB      32              0.0000000000
      4241        38  POPC      C11            52.0260162140       51.8437368730       64.1261345088  MEMB      32              0.0000000000
      4242        38  POPC      H11A           51.3350269093       51.6605524769       63.2663977237  MEMB      32              0.0000000000
      4243        38  POPC      H11B           53.0409293217       51.5856808778       63.7471180313  MEMB      32              0.0000000000
      4244        38  POPC      P              51.0682418584       54.2928072071       63.9690624282  MEMB      32              0.0000000000
      4245        38  POPC      O13            51.4798349550       55.6095221263       64.5222739045  MEMB      32              0.0000000000
      4246        38  POPC      O14            49.6823459340       53.8520766723       64.2453310954  MEMB      32              0.0000000000
      4247        38  POPC      O12            52.0562372973       53.2040802904       64.5553075982  MEMB      32              0.0000000000
      4248        38  POPC      O11            51.4738982196       54.2149211030       62.4179298808  MEMB      32              0.0000000000
      4249        38  POPC      C1             52.7099653910       54.8488252417       62.0241584220  MEMB      32              0.0000000000
      4250        38  POPC      HA             53.5040696915       54.6957812138       62.7950010095  MEMB      32              0.0000000000
      4251        38  POPC      HB             52.5196224558       55.9425160203       61.9296976811  MEMB      32              0.0000000000
      4252        38  POPC      C2             53.3989790032       54.4140597658       60.6630172018  MEMB      32              0.0000000000
      4253        38  POPC      HS             54.2491327285       55.1257743205       60.5333210141  MEMB      32              0.0000000000
      4254        38  POPC      O21            52.4847595975       54.4939992798       59.5366707397  MEMB      32              0.0000000000
      4255        38  POPC      C21            53.0975907277       54.6223804951       58.3509503838  MEMB      32              0.0000000000
      4256        38  POPC      O22            54.3027826148       54.5791610259       58.1769578541  MEMB      32              0.0000000000
      4257        38  POPC      C22            52.0935036255       54.9271023432       57.2424198706  MEMB      32              0.0000000000
      4258        38  POPC      H2R            51.0906135727       55.0935970153       57.6847946326  MEMB      32              0.0000000000
      4259        38  POPC      H2S            52.0591165190       54.0529090146       56.5642263354  MEMB      32              0.0000000000
      4260        38  POPC      C3             54.0325756748       52.9732875677       60.7328997952  MEMB      32              0.0000000000
      4261        38  POPC      HX             54.5678503400       52.8908942343       61.7024516386  MEMB      32              0.0000000000
      4262        38  POPC      HY             54.8119827812       52.9547259705       59.9325444554  MEMB      32              0.0000000000
      4263        38  POPC      O31            53.0905881900       51.8823211843       60.6144660606  MEMB      32              0.0000000000
      4264        38  POPC      C31            53.5437635500       50.8120554196       59.9482139297  MEMB      32              0.0000000000
      4265        38  POPC      O32            54.6928684519       50.6435413332       59.5788136741  MEMB      32              0.0000000000
      4266        38  POPC      C32            52.3652512744       49.8730758249       59.6911462239  MEMB      32              0.0000000000
      4267        38  POPC      H2X            52.1278557952       49.3793660316       60.6587169091  MEMB      32              0.0000000000
      4268        38  POPC      H2Y            52.7024031680       49.1051649352       58.9691025949  MEMB      32              0.0000000000
      4269        38  POPC      C23            52.5684883717       56.1800648275       56.4767180282  MEMB      32              0.0000000000
      4270        38  POPC      H3R            53.6097610426       56.0343531662       56.1143228832  MEMB      32              0.0000000000
      4271        38  POPC      H3S            52.6030896353       57.0091670213       57.2116667751  MEMB      32              0.0000000000
      4272        38  POPC      C24            51.6587872427       56.6215190785       55.3210407114  MEMB      32              0.0000000000
      4273        38  POPC      H4R            51.8461639307       57.7019912413       55.1192465102  MEMB      32              0.0000000000
      4274        38  POPC      H4S            50.5971078766       56.5172730183       55.6359163816  MEMB      32              0.0000000000
      4275        38  POPC      C25            51.8973148800       55.8541730278       54.0121173207  MEMB      32              0.0000000000
      4276        38  POPC      H5R            51.1234571780       56.1587985434       53.2696030904  MEMB      32              0.0000000000
      4277        38  POPC      H5S            51.7585834935       54.7701360458       54.2068621280  MEMB      32              0.0000000000
      4278        38  POPC      C26            53.2811543422       56.1206583559       53.3882968715  MEMB      32              0.0000000000
      4279        38  POPC      H6R            54.1021426771       55.9098411748       54.1055852599  MEMB      32              0.0000000000
      4280        38  POPC      H6S            53.3266523313       57.2065797481       53.1391619958  MEMB      32              0.0000000000
      4281        38  POPC      C27            53.5372004124       55.3145811168       52.1043324312  MEMB      32              0.0000000000
      4282        38  POPC      H7R            54.2065434289       55.9145306242       51.4442453112  MEMB      32              0.0000000000
      4283        38  POPC      H7S            52.5823684853       55.1762282359       51.5559758408  MEMB      32              0.0000000000
      4284        38  POPC      C28            54.2313338637       53.9522767951       52.3241214047  MEMB      32              0.0000000000
      4285        38  POPC      H8R            55.2343122583       54.1423532021       52.7669856661  MEMB      32              0.0000000000
      4286        38  POPC      H8S            54.4078728468       53.5257721237       51.3105559528  MEMB      32              0.0000000000
      4287        38  POPC      C29            53.4765492643       52.9784874898       53.1976300754  MEMB      32              0.0000000000
      4288        38  POPC      H91            53.5484490949       53.1688450035       54.2820221494  MEMB      32              0.0000000000
      4289        38  POPC      C210           52.7359829188       51.9435713625       52.7597938466  MEMB      32              0.0000000000
      4290        38  POPC      H101           52.2121343495       51.3023497990       53.4853208282  MEMB      32              0.0000000000
      4291        38  POPC      C211           52.5331895084       51.5792979346       51.3134121167  MEMB      32              0.0000000000
      4292        38  POPC      H11R           53.5105152717       51.5187745725       50.7839321256  MEMB      32              0.0000000000
      4293        38  POPC      H11S           51.9391853043       52.3679520427       50.7998129658  MEMB      32              0.0000000000
      4294        38  POPC      C212           51.8134787615       50.2317784214       51.1151284036  MEMB      32              0.0000000000
      4295        38  POPC      H12R           52.3556957096       49.4138591615       51.6337658660  MEMB      32              0.0000000000
      4296        38  POPC      H12S           51.8613967003       49.9990752494       50.0291190264  MEMB      32              0.0000000000
      4297        38  POPC      C213           50.3413459201       50.2480716730       51.5600394339  MEMB      32              0.0000000000
      4298        38  POPC      H13R           49.8656168978       51.2095298990       51.2717260236  MEMB      32              0.0000000000
      4299        38  POPC      H13S           50.3106182376       50.1874149033       52.6712548972  MEMB      32              0.0000000000
      4300        38  POPC      C214           49.5077650376       49.0974273992       50.9732131627  MEMB      32              0.0000000000
      4301        38  POPC      H14R           48.7289900398       48.8227288969       51.7211495348  MEMB      32              0.0000000000
      4302        38  POPC      H14S           50.1510923211       48.2027925573       50.8261596433  MEMB      32              0.0000000000
      4303        38  POPC      C215           48.7799318333       49.4488352897       49.6621185805  MEMB      32              0.0000000000
      4304        38  POPC      H15R           48.0001171615       50.2169625357       49.8696809699  MEMB      32              0.0000000000
      4305        38  POPC      H15S           48.2598172195       48.5344735044       49.2956926510  MEMB      32              0.0000000000
      4306        38  POPC      C216           49.6897460918       49.9705773921       48.5392722021  MEMB      32              0.0000000000
      4307        38  POPC      H16R           50.5457663135       49.2699473242       48.4078744917  MEMB      32              0.0000000000
      4308        38  POPC      H16S           50.0956362207       50.9678393853       48.8217055309  MEMB      32              0.0000000000
      4309        38  POPC      C217           48.9523626077       50.0828820624       47.2014441320  MEMB      32              0.0000000000
      4310        38  POPC      H17R           48.0330377729       50.6957873508       47.3444088631  MEMB      32              0.0000000000
      4311        38  POPC      H17S           48.6343680528       49.0575584805       46.9063443837  MEMB      32              0.0000000000
      4312        38  POPC      C218           49.7947487290       50.6904999274       46.0774859995  MEMB      32              0.0000000000
      4313        38  POPC      H18R           49.2313729592       50.6797728813       45.1189817569  MEMB      32              0.0000000000
      4314        38  POPC      H18S           50.7329705584       50.1113136622       45.9394025585  MEMB      32              0.0000000000
      4315        38  POPC      H18T           50.0645157298       51.7404709753       46.3214713000  MEMB      32              0.0000000000
      4316        38  POPC      C33            51.0992734066       50.6107257981       59.1729413561  MEMB      32              0.0000000000
      4317        38  POPC      H3X            50.8144853719       51.4237433004       59.8788864609  MEMB      32              0.0000000000
      4318        38  POPC      H3Y            50.2546580617       49.8838280746       59.1569904465  MEMB      32              0.0000000000
      4319        38  POPC      C34            51.2646705797       51.1976173300       57.7628676987  MEMB      32              0.0000000000
      4320        38  POPC      H4X            51.5517189192       50.3831647328       57.0647145635  MEMB      32              0.0000000000
      4321        38  POPC      H4Y            52.0986083826       51.9331451243       57.7615876074  MEMB      32              0.0000000000
      4322        38  POPC      C35            49.9935861500       51.8862425358       57.2319370061  MEMB      32              0.0000000000
      4323        38  POPC      H5X            49.9006513781       52.8820762512       57.7206825509  MEMB      32              0.0000000000
      4324        38  POPC      H5Y            49.0921297595       51.2944076195       57.5143676890  MEMB      32              0.0000000000
      4325        38  POPC      C36            50.0273154475       52.0417679232       55.7025521157  MEMB      32              0.0000000000
      4326        38  POPC      H6X            49.8133170991       51.0553746210       55.2338324094  MEMB      32              0.0000000000
      4327        38  POPC      H6Y            51.0558184620       52.3408227814       55.3978400184  MEMB      32              0.0000000000
      4328        38  POPC      C37            49.0500237732       53.0931791043       55.1562102469  MEMB      32              0.0000000000
      4329        38  POPC      H7X            49.3555814823       54.0872673192       55.5544561085  MEMB      32              0.0000000000
      4330        38  POPC      H7Y            48.0212976078       52.8838329505       55.5205720036  MEMB      32              0.0000000000
      4331        38  POPC      C38            49.0394361248       53.1560665162       53.6164479110  MEMB      32              0.0000000000
      4332        38  POPC      H8X            48.5464198919       52.2464561041       53.2099320811  MEMB      32              0.0000000000
      4333        38  POPC      H8Y            50.0943773379       53.1582283899       53.2636575386  MEMB      32              0.0000000000
      4334        38  POPC      C39            48.3344158230       54.4173353700       53.0872782519  MEMB      32              0.0000000000
      4335        38  POPC      H9X            48.8425222916       55.3042088476       53.5301417953  MEMB      32              0.0000000000
      4336        38  POPC      H9Y            47.2833774369       54.4083875815       53.4434795243  MEMB      32              0.0000000000
      4337        38  POPC      C310           48.3140037239       54.5860147066       51.5571379079  MEMB      32              0.0000000000
      4338        38  POPC      H10X           47.9709194924       55.6225562927       51.3337543251  MEMB      32              0.0000000000
      4339        38  POPC      H10Y           47.5744002070       53.8839274767       51.1107174748  MEMB      32              0.0000000000
      4340        38  POPC      C311           49.6764781801       54.3612595170       50.8863306181  MEMB      32              0.0000000000
      4341        38  POPC      H11X           49.8071535831       53.2729726255       50.7037897018  MEMB      32              0.0000000000
      4342        38  POPC      H11Y           50.4861797633       54.6801406420       51.5778198950  MEMB      32              0.0000000000
      4343        38  POPC      C312           49.8526278461       55.1150536000       49.5580496201  MEMB      32              0.0000000000
      4344        38  POPC      H12X           49.9558424639       56.2000661820       49.7787401185  MEMB      32              0.0000000000
      4345        38  POPC      H12Y           48.9466026691       54.9746822465       48.9272134670  MEMB      32              0.0000000000
      4346        38  POPC      C313           51.0806567908       54.6151939772       48.7791263269  MEMB      32              0.0000000000
      4347        38  POPC      H13X           50.8864758795       53.5578283659       48.4853814216  MEMB      32              0.0000000000
      4348        38  POPC      H13Y           51.9676740550       54.6089792040       49.4491149258  MEMB      32              0.0000000000
      4349        38  POPC      C314           51.4246861557       55.4198729203       47.5133598452  MEMB      32              0.0000000000
      4350        38  POPC      H14X           50.5234399877       55.5547961704       46.8780743724  MEMB      32              0.0000000000
      4351        38  POPC      H14Y           52.1490290111       54.8061977851       46.9265544753  MEMB      32              0.0000000000
      4352        38  POPC      C315           52.0947190719       56.7758936284       47.7926751842  MEMB      32              0.0000000000
      4353        38  POPC      H15X           52.9171697181       56.9184245672       47.0534378797  MEMB      32              0.0000000000
      4354        38  POPC      H15Y           52.5660035740       56.7567242389       48.8012742394  MEMB      32              0.0000000000
      4355        38  POPC      C316           51.1598520760       57.9767448838       47.6779481339  MEMB      32              0.0000000000
      4356        38  POPC      H16X           51.7058482730       58.9193823893       47.9016066903  MEMB      32              0.0000000000
      4357        38  POPC      H16Y           50.3107264143       57.8845794835       48.3882726899  MEMB      32              0.0000000000
      4358        38  POPC      H16Z           50.7434728912       58.0459413096       46.6496380654  MEMB      32              0.0000000000
      4359        39  POPC      N              16.0955145379       51.3475177421       63.9996250603  MEMB      33              0.0000000000
      4360        39  POPC      C12            15.7768705297       50.2527124626       65.0063761702  MEMB      33              0.0000000000
      4361        39  POPC      H12A           16.7200181894       49.8672003766       65.3804349184  MEMB      33              0.0000000000
      4362        39  POPC      H12B           15.3102655917       49.4224107430       64.4897976207  MEMB      33              0.0000000000
      4363        39  POPC      C13            14.8457241360       51.6575724371       63.2457806345  MEMB      33              0.0000000000
      4364        39  POPC      H13A           14.4655804447       50.8057184044       62.7023747762  MEMB      33              0.0000000000
      4365        39  POPC      H13B           14.0723591390       51.9323797182       63.9694938689  MEMB      33              0.0000000000
      4366        39  POPC      H13C           14.9691141293       52.5179201290       62.6017615218  MEMB      33              0.0000000000
      4367        39  POPC      C14            16.5044696752       52.5985024837       64.7113515221  MEMB      33              0.0000000000
      4368        39  POPC      H14A           17.4553152972       52.5050811088       65.2212228740  MEMB      33              0.0000000000
      4369        39  POPC      H14B           16.5869910532       53.4460603321       64.0242801379  MEMB      33              0.0000000000
      4370        39  POPC      H14C           15.7315127708       52.8549600682       65.4290651231  MEMB      33              0.0000000000
      4371        39  POPC      C15            17.1890799515       50.9106347096       63.0742496093  MEMB      33              0.0000000000
      4372        39  POPC      H15A           17.3165174285       51.6175578992       62.2671312606  MEMB      33              0.0000000000
      4373        39  POPC      H15B           16.9859979595       49.9372603473       62.6444866849  MEMB      33              0.0000000000
      4374        39  POPC      H15C           18.1322383209       50.8354754047       63.6073478064  MEMB      33              0.0000000000
      4375        39  POPC      C11            14.8394045372       50.5916974470       66.1975613714  MEMB      33              0.0000000000
      4376        39  POPC      H11A           15.2468817966       51.4682356334       66.7473468310  MEMB      33              0.0000000000
      4377        39  POPC      H11B           14.8612362162       49.7534610494       66.9293509226  MEMB      33              0.0000000000
      4378        39  POPC      P              12.4127422992       49.7917921611       65.4351767091  MEMB      33              0.0000000000
      4379        39  POPC      O13            11.0532298834       50.3876370245       65.4565316789  MEMB      33              0.0000000000
      4380        39  POPC      O14            12.6562993978       48.5431511829       66.2046339136  MEMB      33              0.0000000000
      4381        39  POPC      O12            13.5065027731       50.8858593183       65.7892252595  MEMB      33              0.0000000000
      4382        39  POPC      O11            12.8446702276       49.5187084779       63.9567157964  MEMB      33              0.0000000000
      4383        39  POPC      C1             11.9717320492       49.7571518183       62.8601771155  MEMB      33              0.0000000000
      4384        39  POPC      HA             12.4178170017       50.5220630046       62.1850166253  MEMB      33              0.0000000000
      4385        39  POPC      HB             10.9652701903       50.1446752431       63.1506783382  MEMB      33              0.0000000000
      4386        39  POPC      C2             11.7568794790       48.4569303699       62.0631994323  MEMB      33              0.0000000000
      4387        39  POPC      HS             11.5626624924       47.6181116060       62.7608986669  MEMB      33              0.0000000000
      4388        39  POPC      O21            12.9182409793       48.2386749296       61.2449371165  MEMB      33              0.0000000000
      4389        39  POPC      C21            13.8834130885       47.5665683206       61.8326877448  MEMB      33              0.0000000000
      4390        39  POPC      O22            13.8070827048       46.9545212600       62.8828180012  MEMB      33              0.0000000000
      4391        39  POPC      C22            15.1561493696       47.6756523231       60.9960218136  MEMB      33              0.0000000000
      4392        39  POPC      H2R            15.9858882840       47.4001201106       61.6787953058  MEMB      33              0.0000000000
      4393        39  POPC      H2S            15.2921848388       48.7269021683       60.6665851630  MEMB      33              0.0000000000
      4394        39  POPC      C3             10.4994129485       48.6106674259       61.1842219566  MEMB      33              0.0000000000
      4395        39  POPC      HX              9.6128426041       48.6411774498       61.8547433875  MEMB      33              0.0000000000
      4396        39  POPC      HY             10.3710122958       47.7310385857       60.5091088718  MEMB      33              0.0000000000
      4397        39  POPC      O31            10.5986637622       49.8701824615       60.5029318164  MEMB      33              0.0000000000
      4398        39  POPC      C31            11.2969225472       49.7772226941       59.3737681487  MEMB      33              0.0000000000
      4399        39  POPC      O32            11.4924940164       48.7546525318       58.7450880151  MEMB      33              0.0000000000
      4400        39  POPC      C32            11.8073835694       51.1470756950       58.9840439560  MEMB      33              0.0000000000
      4401        39  POPC      H2X            11.7484412131       51.8463613514       59.8409890953  MEMB      33              0.0000000000
      4402        39  POPC      H2Y            11.1536178224       51.5232551208       58.1737637217  MEMB      33              0.0000000000
      4403        39  POPC      C23            15.1575687136       46.7255897201       59.7740605581  MEMB      33              0.0000000000
      4404        39  POPC      H3R            14.8287594257       45.6988362401       60.0517073887  MEMB      33              0.0000000000
      4405        39  POPC      H3S            16.1995753587       46.6356632362       59.3946489895  MEMB      33              0.0000000000
      4406        39  POPC      C24            14.3125719198       47.2579327654       58.6165789815  MEMB      33              0.0000000000
      4407        39  POPC      H4R            14.5010914296       48.3470806226       58.4875829868  MEMB      33              0.0000000000
      4408        39  POPC      H4S            13.2359881063       47.1291465625       58.8624150872  MEMB      33              0.0000000000
      4409        39  POPC      C25            14.5972396048       46.5632199315       57.2824892548  MEMB      33              0.0000000000
      4410        39  POPC      H5R            14.3722937224       45.4775198479       57.3785690300  MEMB      33              0.0000000000
      4411        39  POPC      H5S            15.6740038693       46.6687215655       57.0206183196  MEMB      33              0.0000000000
      4412        39  POPC      C26            13.7455061594       47.1577311277       56.1557732373  MEMB      33              0.0000000000
      4413        39  POPC      H6R            14.0302726193       48.2201778863       55.9890552631  MEMB      33              0.0000000000
      4414        39  POPC      H6S            12.6783110482       47.1514029565       56.4731651664  MEMB      33              0.0000000000
      4415        39  POPC      C27            13.8983048558       46.3795584382       54.8432146721  MEMB      33              0.0000000000
      4416        39  POPC      H7R            13.6457547476       45.3143185697       55.0300627750  MEMB      33              0.0000000000
      4417        39  POPC      H7S            14.9662222468       46.4131229601       54.5392003754  MEMB      33              0.0000000000
      4418        39  POPC      C28            13.0353834868       46.9368352519       53.6986343318  MEMB      33              0.0000000000
      4419        39  POPC      H8R            13.3086598542       46.4026707799       52.7617034624  MEMB      33              0.0000000000
      4420        39  POPC      H8S            13.3142377087       48.0040466424       53.5513370484  MEMB      33              0.0000000000
      4421        39  POPC      C29            11.5604442738       46.7628809056       53.9716200050  MEMB      33              0.0000000000
      4422        39  POPC      H91            11.2439643054       45.7260336765       54.1554391054  MEMB      33              0.0000000000
      4423        39  POPC      C210           10.6391999679       47.7387390472       54.0391279524  MEMB      33              0.0000000000
      4424        39  POPC      H101            9.5877146027       47.4702954894       54.2282614947  MEMB      33              0.0000000000
      4425        39  POPC      C211           10.9166798786       49.2063617462       53.8501912713  MEMB      33              0.0000000000
      4426        39  POPC      H11R           11.8252942479       49.5092558748       54.4188655395  MEMB      33              0.0000000000
      4427        39  POPC      H11S           10.0760418625       49.8070425313       54.2474262733  MEMB      33              0.0000000000
      4428        39  POPC      C212           11.1162788819       49.5624299922       52.3697745865  MEMB      33              0.0000000000
      4429        39  POPC      H12R           10.1994092300       49.3361034174       51.7804573492  MEMB      33              0.0000000000
      4430        39  POPC      H12S           11.9295122866       48.9185472005       51.9605864317  MEMB      33              0.0000000000
      4431        39  POPC      C213           11.5215724870       51.0264195020       52.1465690552  MEMB      33              0.0000000000
      4432        39  POPC      H13R           12.0013912807       51.4334638398       53.0658947164  MEMB      33              0.0000000000
      4433        39  POPC      H13S           10.6172222992       51.6357886062       51.9281294791  MEMB      33              0.0000000000
      4434        39  POPC      C214           12.5245317437       51.1181148849       50.9934342604  MEMB      33              0.0000000000
      4435        39  POPC      H14R           12.1138803903       50.5750215115       50.1210594905  MEMB      33              0.0000000000
      4436        39  POPC      H14S           13.4601224405       50.5988839508       51.3060508949  MEMB      33              0.0000000000
      4437        39  POPC      C215           12.8659844568       52.5380701388       50.5488111230  MEMB      33              0.0000000000
      4438        39  POPC      H15R           13.2210749240       53.0989602099       51.4430609850  MEMB      33              0.0000000000
      4439        39  POPC      H15S           11.9596697450       53.0452356756       50.1612775200  MEMB      33              0.0000000000
      4440        39  POPC      C216           13.9723440590       52.5595136534       49.4866202294  MEMB      33              0.0000000000
      4441        39  POPC      H16R           14.7371888424       51.8090700037       49.7841572497  MEMB      33              0.0000000000
      4442        39  POPC      H16S           14.4695226158       53.5518318857       49.4924076628  MEMB      33              0.0000000000
      4443        39  POPC      C217           13.5271910296       52.2563843573       48.0492224337  MEMB      33              0.0000000000
      4444        39  POPC      H17R           12.8134814852       51.4042286863       48.0472607830  MEMB      33              0.0000000000
      4445        39  POPC      H17S           14.4314834681       51.9312893250       47.4828734106  MEMB      33              0.0000000000
      4446        39  POPC      C218           12.9170198166       53.4487229242       47.3092773827  MEMB      33              0.0000000000
      4447        39  POPC      H18R           11.9837030929       53.7803969271       47.8081251416  MEMB      33              0.0000000000
      4448        39  POPC      H18S           12.6682868542       53.1649626776       46.2664614951  MEMB      33              0.0000000000
      4449        39  POPC      H18T           13.6328374940       54.2992432544       47.2773616404  MEMB      33              0.0000000000
      4450        39  POPC      C33            13.2507934530       51.0160501032       58.4740137284  MEMB      33              0.0000000000
      4451        39  POPC      H3X            13.2912017805       50.1865028345       57.7259964035  MEMB      33              0.0000000000
      4452        39  POPC      H3Y            13.9426738702       50.7606758122       59.3078983118  MEMB      33              0.0000000000
      4453        39  POPC      C34            13.7019015956       52.2971838755       57.7812155263  MEMB      33              0.0000000000
      4454        39  POPC      H4X            13.6843759616       53.1480235322       58.4995829828  MEMB      33              0.0000000000
      4455        39  POPC      H4Y            12.9688257066       52.5174001674       56.9714499952  MEMB      33              0.0000000000
      4456        39  POPC      C35            15.0874146259       52.1838454426       57.1490948608  MEMB      33              0.0000000000
      4457        39  POPC      H5X            15.8612338930       52.1091658960       57.9459745199  MEMB      33              0.0000000000
      4458        39  POPC      H5Y            15.2837615189       53.1167042735       56.5752056667  MEMB      33              0.0000000000
      4459        39  POPC      C36            15.2401918555       50.9821552288       56.2050737082  MEMB      33              0.0000000000
      4460        39  POPC      H6X            14.3560617170       50.8891973025       55.5356125484  MEMB      33              0.0000000000
      4461        39  POPC      H6Y            15.3035761211       50.0532650302       56.8159866288  MEMB      33              0.0000000000
      4462        39  POPC      C37            16.5064434089       51.1047406446       55.3559063656  MEMB      33              0.0000000000
      4463        39  POPC      H7X            17.2789299782       51.6020562708       55.9852356454  MEMB      33              0.0000000000
      4464        39  POPC      H7Y            16.3138292632       51.7825456710       54.4984091034  MEMB      33              0.0000000000
      4465        39  POPC      C38            17.0670610029       49.7594900689       54.8718408475  MEMB      33              0.0000000000
      4466        39  POPC      H8X            16.9452182475       48.9788558896       55.6545316632  MEMB      33              0.0000000000
      4467        39  POPC      H8Y            18.1608787027       49.8981126695       54.7022497958  MEMB      33              0.0000000000
      4468        39  POPC      C39            16.4728514607       49.2897380972       53.5440965501  MEMB      33              0.0000000000
      4469        39  POPC      H9X            16.6240877855       50.1059631887       52.8050244810  MEMB      33              0.0000000000
      4470        39  POPC      H9Y            15.3772802276       49.1239238623       53.6404892693  MEMB      33              0.0000000000
      4471        39  POPC      C310           17.1613284646       48.0258857562       53.0095628226  MEMB      33              0.0000000000
      4472        39  POPC      H10X           16.6929913861       47.1284887493       53.4651664271  MEMB      33              0.0000000000
      4473        39  POPC      H10Y           18.2281317899       48.0429273613       53.3298815007  MEMB      33              0.0000000000
      4474        39  POPC      C311           17.1413810987       47.9180115338       51.4770118698  MEMB      33              0.0000000000
      4475        39  POPC      H11X           17.5683633731       46.9369597622       51.1742275481  MEMB      33              0.0000000000
      4476        39  POPC      H11Y           17.8040709580       48.7164315451       51.0687579533  MEMB      33              0.0000000000
      4477        39  POPC      C312           15.7515851459       48.0800607518       50.8496002973  MEMB      33              0.0000000000
      4478        39  POPC      H12X           15.2917015221       49.0195803631       51.2316971584  MEMB      33              0.0000000000
      4479        39  POPC      H12Y           15.0904129842       47.2392719477       51.1513531052  MEMB      33              0.0000000000
      4480        39  POPC      C313           15.8179615780       48.1908455424       49.3216192540  MEMB      33              0.0000000000
      4481        39  POPC      H13X           16.0234292280       47.1967228873       48.8679953697  MEMB      33              0.0000000000
      4482        39  POPC      H13Y           16.6666291501       48.8642305400       49.0579288696  MEMB      33              0.0000000000
      4483        39  POPC      C314           14.5508264775       48.8118022191       48.7259544683  MEMB      33              0.0000000000
      4484        39  POPC      H14X           14.7488266019       49.0878780736       47.6672258106  MEMB      33              0.0000000000
      4485        39  POPC      H14Y           14.3195338987       49.7527638390       49.2657856701  MEMB      33              0.0000000000
      4486        39  POPC      C315           13.3308480514       47.8917756450       48.7683505103  MEMB      33              0.0000000000
      4487        39  POPC      H15X           13.0825066582       47.6235243059       49.8202569072  MEMB      33              0.0000000000
      4488        39  POPC      H15Y           13.6039031603       46.9522267713       48.2382895377  MEMB      33              0.0000000000
      4489        39  POPC      C316           12.1072560907       48.5185357453       48.0983256156  MEMB      33              0.0000000000
      4490        39  POPC      H16X           11.5649025040       49.1937775027       48.7876694667  MEMB      33              0.0000000000
      4491        39  POPC      H16Y           11.3973444150       47.7387314804       47.7713552203  MEMB      33              0.0000000000
      4492        39  POPC      H16Z           12.4094073809       49.1081433320       47.2083792924  MEMB      33              0.0000000000
      4493        40  POPC      N              22.9645624082       57.3746062286       64.8264207088  MEMB      34              0.0000000000
      4494        40  POPC      C12            22.7136242294       56.2888850664       63.7808642984  MEMB      34              0.0000000000
      4495        40  POPC      H12A           23.6571173804       55.8050325680       63.5475949450  MEMB      34              0.0000000000
      4496        40  POPC      H12B           22.3786565464       56.7667871951       62.8658738335  MEMB      34              0.0000000000
      4497        40  POPC      C13            21.8023983650       58.3142031911       64.8609192079  MEMB      34              0.0000000000
      4498        40  POPC      H13A           20.9027034100       57.7897704610       65.1999996391  MEMB      34              0.0000000000
      4499        40  POPC      H13B           21.9895118489       59.1411384574       65.5234712746  MEMB      34              0.0000000000
      4500        40  POPC      H13C           21.5659753419       58.6827368391       63.8738771488  MEMB      34              0.0000000000
      4501        40  POPC      C14            23.0867107450       56.7386724058       66.1811804995  MEMB      34              0.0000000000
      4502        40  POPC      H14A           22.1583455285       56.2213904667       66.4316809138  MEMB      34              0.0000000000
      4503        40  POPC      H14B           23.8904275391       56.0153846291       66.1973912488  MEMB      34              0.0000000000
      4504        40  POPC      H14C           23.2603518928       57.4696867002       66.9618456286  MEMB      34              0.0000000000
      4505        40  POPC      C15            24.2218342017       58.1357339214       64.5235154598  MEMB      34              0.0000000000
      4506        40  POPC      H15A           24.4123909024       58.8904746428       65.2740461419  MEMB      34              0.0000000000
      4507        40  POPC      H15B           24.2156797871       58.6479961919       63.5631239762  MEMB      34              0.0000000000
      4508        40  POPC      H15C           25.1055655929       57.4957574766       64.5028465170  MEMB      34              0.0000000000
      4509        40  POPC      C11            21.6482443242       55.1984043462       64.0887977167  MEMB      34              0.0000000000
      4510        40  POPC      H11A           21.9092013519       54.6570174638       65.0271861798  MEMB      34              0.0000000000
      4511        40  POPC      H11B           21.6927490736       54.4410604234       63.2734817660  MEMB      34              0.0000000000
      4512        40  POPC      P              19.3193455627       55.6578810305       65.3020032458  MEMB      34              0.0000000000
      4513        40  POPC      O13            19.2132971730       57.0119930819       65.8990921997  MEMB      34              0.0000000000
      4514        40  POPC      O14            19.7042795135       54.5837934522       66.2458497463  MEMB      34              0.0000000000
      4515        40  POPC      O12            20.3394943293       55.7572332171       64.0979853503  MEMB      34              0.0000000000
      4516        40  POPC      O11            17.9723579635       55.2480914922       64.5636971374  MEMB      34              0.0000000000
      4517        40  POPC      C1             16.7706152830       56.0205499274       64.6947534961  MEMB      34              0.0000000000
      4518        40  POPC      HA             16.8741446547       56.8952272939       65.3770909800  MEMB      34              0.0000000000
      4519        40  POPC      HB             15.9916692297       55.3684752929       65.1500983847  MEMB      34              0.0000000000
      4520        40  POPC      C2             16.1756420668       56.5346510432       63.3388508233  MEMB      34              0.0000000000
      4521        40  POPC      HS             15.1052107542       56.2082113063       63.3139317551  MEMB      34              0.0000000000
      4522        40  POPC      O21            16.9212405877       56.0534506261       62.2036994959  MEMB      34              0.0000000000
      4523        40  POPC      C21            16.5302771427       54.8952350127       61.7540799386  MEMB      34              0.0000000000
      4524        40  POPC      O22            15.5263067858       54.2883200799       62.0787222983  MEMB      34              0.0000000000
      4525        40  POPC      C22            17.4855663753       54.3638906087       60.6919525878  MEMB      34              0.0000000000
      4526        40  POPC      H2R            16.8474783871       53.8256178526       59.9603648251  MEMB      34              0.0000000000
      4527        40  POPC      H2S            18.1741720241       53.6416590374       61.1744857482  MEMB      34              0.0000000000
      4528        40  POPC      C3             16.1050678784       58.0872245314       63.2521027446  MEMB      34              0.0000000000
      4529        40  POPC      HX             15.7325745758       58.4767071819       64.2224017154  MEMB      34              0.0000000000
      4530        40  POPC      HY             15.3169244989       58.2864824108       62.4838221544  MEMB      34              0.0000000000
      4531        40  POPC      O31            17.3827161850       58.6904827723       62.9312261884  MEMB      34              0.0000000000
      4532        40  POPC      C31            17.3161246612       59.6865683625       62.0549224466  MEMB      34              0.0000000000
      4533        40  POPC      O32            16.2920779745       60.2250639125       61.6709316581  MEMB      34              0.0000000000
      4534        40  POPC      C32            18.7290532743       60.1116519437       61.6683621084  MEMB      34              0.0000000000
      4535        40  POPC      H2X            19.4616944264       59.4034643120       62.1023752120  MEMB      34              0.0000000000
      4536        40  POPC      H2Y            18.8974121267       61.1090036123       62.1265485386  MEMB      34              0.0000000000
      4537        40  POPC      C23            18.2639524654       55.4858136410       59.9850478747  MEMB      34              0.0000000000
      4538        40  POPC      H3R            19.0999515493       55.8152160698       60.6441850337  MEMB      34              0.0000000000
      4539        40  POPC      H3S            17.5865016483       56.3574775220       59.8343167307  MEMB      34              0.0000000000
      4540        40  POPC      C24            18.7868683075       55.0933603230       58.6013386781  MEMB      34              0.0000000000
      4541        40  POPC      H4R            19.2699811606       54.0921311035       58.6379316790  MEMB      34              0.0000000000
      4542        40  POPC      H4S            19.5668243488       55.8328677690       58.3089962207  MEMB      34              0.0000000000
      4543        40  POPC      C25            17.6820964532       55.1219244209       57.5336258441  MEMB      34              0.0000000000
      4544        40  POPC      H5R            17.0869909661       56.0566571218       57.6436986492  MEMB      34              0.0000000000
      4545        40  POPC      H5S            16.9906818766       54.2667023600       57.6917141677  MEMB      34              0.0000000000
      4546        40  POPC      C26            18.2420797346       55.0669681297       56.1081187115  MEMB      34              0.0000000000
      4547        40  POPC      H6R            18.8403786536       54.1352594940       56.0122283531  MEMB      34              0.0000000000
      4548        40  POPC      H6S            18.9263290806       55.9302687538       55.9446289689  MEMB      34              0.0000000000
      4549        40  POPC      C27            17.1359685103       55.1086828796       55.0393822103  MEMB      34              0.0000000000
      4550        40  POPC      H7R            16.6034613863       56.0822850342       55.1356044099  MEMB      34              0.0000000000
      4551        40  POPC      H7S            16.3980394345       54.3035731210       55.2402868847  MEMB      34              0.0000000000
      4552        40  POPC      C28            17.6398650890       54.9687974808       53.5901465993  MEMB      34              0.0000000000
      4553        40  POPC      H8R            18.3945197310       55.7648981146       53.4093532083  MEMB      34              0.0000000000
      4554        40  POPC      H8S            16.7893608119       55.1604265970       52.8994619436  MEMB      34              0.0000000000
      4555        40  POPC      C29            18.2594097043       53.6177944130       53.3522435629  MEMB      34              0.0000000000
      4556        40  POPC      H91            19.1385110147       53.4272392955       53.9807072188  MEMB      34              0.0000000000
      4557        40  POPC      C210           17.9069735802       52.6687724409       52.4666731170  MEMB      34              0.0000000000
      4558        40  POPC      H101           18.4731021853       51.7244380011       52.4608047759  MEMB      34              0.0000000000
      4559        40  POPC      C211           16.7879839122       52.7054613252       51.4645516129  MEMB      34              0.0000000000
      4560        40  POPC      H11R           16.0606432978       53.5169440095       51.6873285161  MEMB      34              0.0000000000
      4561        40  POPC      H11S           16.2134954675       51.7543624983       51.4820859871  MEMB      34              0.0000000000
      4562        40  POPC      C212           17.3516329700       52.9252044405       50.0504491108  MEMB      34              0.0000000000
      4563        40  POPC      H12R           17.9266957597       53.8698249364       50.0242837741  MEMB      34              0.0000000000
      4564        40  POPC      H12S           16.5011333818       53.0603956287       49.3564556759  MEMB      34              0.0000000000
      4565        40  POPC      C213           18.2518118337       51.8070971302       49.5001912764  MEMB      34              0.0000000000
      4566        40  POPC      H13R           17.6618119455       50.8720781569       49.3957961889  MEMB      34              0.0000000000
      4567        40  POPC      H13S           19.0842791711       51.6104232023       50.2121820721  MEMB      34              0.0000000000
      4568        40  POPC      C214           18.8662805653       52.1912324084       48.1441644455  MEMB      34              0.0000000000
      4569        40  POPC      H14R           19.5182673229       51.3658232854       47.7831013604  MEMB      34              0.0000000000
      4570        40  POPC      H14S           19.5178632598       53.0820761456       48.2998193056  MEMB      34              0.0000000000
      4571        40  POPC      C215           17.8316593848       52.5279331302       47.0585273024  MEMB      34              0.0000000000
      4572        40  POPC      H15R           17.1143274664       53.2914833688       47.4257824585  MEMB      34              0.0000000000
      4573        40  POPC      H15S           17.2389969000       51.6230914039       46.8065895740  MEMB      34              0.0000000000
      4574        40  POPC      C216           18.4865015686       53.1087476591       45.8004132816  MEMB      34              0.0000000000
      4575        40  POPC      H16R           19.1406519035       52.3369052577       45.3469258497  MEMB      34              0.0000000000
      4576        40  POPC      H16S           19.1359365205       53.9652031037       46.0913129289  MEMB      34              0.0000000000
      4577        40  POPC      C217           17.4533039515       53.5919998284       44.7791125922  MEMB      34              0.0000000000
      4578        40  POPC      H17R           16.6738192237       54.1933051627       45.3024396344  MEMB      34              0.0000000000
      4579        40  POPC      H17S           16.9519763032       52.7015605092       44.3405482401  MEMB      34              0.0000000000
      4580        40  POPC      C218           18.0510948515       54.4403853723       43.6589932402  MEMB      34              0.0000000000
      4581        40  POPC      H18R           17.2822042069       54.6593582308       42.8874991741  MEMB      34              0.0000000000
      4582        40  POPC      H18S           18.9032173751       53.9225717576       43.1748506432  MEMB      34              0.0000000000
      4583        40  POPC      H18T           18.4332432046       55.4032088840       44.0549492645  MEMB      34              0.0000000000
      4584        40  POPC      C33            18.9095549421       60.1998330660       60.1409198324  MEMB      34              0.0000000000
      4585        40  POPC      H3X            19.9258043887       60.5996535494       59.9268737989  MEMB      34              0.0000000000
      4586        40  POPC      H3Y            18.1688316328       60.9124990284       59.7119946268  MEMB      34              0.0000000000
      4587        40  POPC      C34            18.7772912247       58.8316819167       59.4625154582  MEMB      34              0.0000000000
      4588        40  POPC      H4X            17.7911968310       58.3876330592       59.7217309206  MEMB      34              0.0000000000
      4589        40  POPC      H4Y            19.5750063511       58.1670989926       59.8622946212  MEMB      34              0.0000000000
      4590        40  POPC      C35            18.8887563644       58.9184058199       57.9371793779  MEMB      34              0.0000000000
      4591        40  POPC      H5X            19.2758908579       57.9592394326       57.5315313577  MEMB      34              0.0000000000
      4592        40  POPC      H5Y            19.6270674646       59.7100669482       57.6798111857  MEMB      34              0.0000000000
      4593        40  POPC      C36            17.5361420249       59.2183752332       57.2715596195  MEMB      34              0.0000000000
      4594        40  POPC      H6X            16.9757731298       59.9300877310       57.9221081555  MEMB      34              0.0000000000
      4595        40  POPC      H6Y            16.9316133186       58.2899375527       57.1972634588  MEMB      34              0.0000000000
      4596        40  POPC      C37            17.6923629217       59.8651902839       55.8935984873  MEMB      34              0.0000000000
      4597        40  POPC      H7X            18.2898655212       60.7812758637       56.0715736228  MEMB      34              0.0000000000
      4598        40  POPC      H7Y            16.7058095016       60.1821007252       55.4923596739  MEMB      34              0.0000000000
      4599        40  POPC      C38            18.4229802308       59.0063726470       54.8543645221  MEMB      34              0.0000000000
      4600        40  POPC      H8X            17.7385551583       58.2167309408       54.4762837361  MEMB      34              0.0000000000
      4601        40  POPC      H8Y            19.2949221350       58.5002909963       55.3256696218  MEMB      34              0.0000000000
      4602        40  POPC      C39            18.9579685650       59.8740945846       53.7065866461  MEMB      34              0.0000000000
      4603        40  POPC      H9X            19.6223326862       60.6431461695       54.1580812492  MEMB      34              0.0000000000
      4604        40  POPC      H9Y            18.1184762047       60.3989700226       53.2014481534  MEMB      34              0.0000000000
      4605        40  POPC      C310           19.7924249437       59.1073592963       52.6786184598  MEMB      34              0.0000000000
      4606        40  POPC      H10X           20.5281987376       58.4691448229       53.2166045369  MEMB      34              0.0000000000
      4607        40  POPC      H10Y           20.3687404607       59.8277497370       52.0529286533  MEMB      34              0.0000000000
      4608        40  POPC      C311           18.9312437100       58.2443404257       51.7577982418  MEMB      34              0.0000000000
      4609        40  POPC      H11X           18.3288375836       58.9019338388       51.0928335800  MEMB      34              0.0000000000
      4610        40  POPC      H11Y           18.2146134912       57.6542073156       52.3708608324  MEMB      34              0.0000000000
      4611        40  POPC      C312           19.7820583566       57.2770186530       50.9285893190  MEMB      34              0.0000000000
      4612        40  POPC      H12X           20.4915887753       56.7578088866       51.6150206584  MEMB      34              0.0000000000
      4613        40  POPC      H12Y           20.3817075787       57.8413037438       50.1827650969  MEMB      34              0.0000000000
      4614        40  POPC      C313           18.9314391827       56.2021693381       50.2469290685  MEMB      34              0.0000000000
      4615        40  POPC      H13X           18.3328592354       55.6963278624       51.0369450116  MEMB      34              0.0000000000
      4616        40  POPC      H13Y           19.5972305780       55.4311872826       49.7978478318  MEMB      34              0.0000000000
      4617        40  POPC      C314           17.9701962609       56.7397147692       49.1790532236  MEMB      34              0.0000000000
      4618        40  POPC      H14X           17.9759152887       57.8506270632       49.1916149017  MEMB      34              0.0000000000
      4619        40  POPC      H14Y           16.9329464755       56.4062529987       49.4127121439  MEMB      34              0.0000000000
      4620        40  POPC      C315           18.3244836276       56.2531408673       47.7719632646  MEMB      34              0.0000000000
      4621        40  POPC      H15X           18.1389170730       55.1610220246       47.7258603228  MEMB      34              0.0000000000
      4622        40  POPC      H15Y           19.4117910541       56.3944409859       47.5927959360  MEMB      34              0.0000000000
      4623        40  POPC      C316           17.5297299866       56.9618325065       46.6775975126  MEMB      34              0.0000000000
      4624        40  POPC      H16X           16.4457778843       56.7432178518       46.7809564779  MEMB      34              0.0000000000
      4625        40  POPC      H16Y           17.8602886630       56.6272930324       45.6737730659  MEMB      34              0.0000000000
      4626        40  POPC      H16Z           17.6832190828       58.0607675186       46.7375268221  MEMB      34              0.0000000000
      4627        41  POPC      N              10.7095217584       45.1796278702       64.2813662117  MEMB      35              0.0000000000
      4628        41  POPC      C12            10.8236273393       43.8066663831       64.9572840861  MEMB      35              0.0000000000
      4629        41  POPC      H12A           10.8407766735       43.9668738051       66.0324802806  MEMB      35              0.0000000000
      4630        41  POPC      H12B           11.7643362939       43.3434760421       64.7101265532  MEMB      35              0.0000000000
      4631        41  POPC      C13             9.3880517179       45.7944218691       64.6416809122  MEMB      35              0.0000000000
      4632        41  POPC      H13A            9.3715341598       46.0722920496       65.6911676555  MEMB      35              0.0000000000
      4633        41  POPC      H13B            9.1174788063       46.6261361231       64.0156042393  MEMB      35              0.0000000000
      4634        41  POPC      H13C            8.6207471503       45.0217065602       64.5554742743  MEMB      35              0.0000000000
      4635        41  POPC      C14            11.7876945174       46.0585674736       64.8289844824  MEMB      35              0.0000000000
      4636        41  POPC      H14A           11.6359356080       47.0996444227       64.5464216148  MEMB      35              0.0000000000
      4637        41  POPC      H14B           11.8117365901       46.0937609540       65.9183496378  MEMB      35              0.0000000000
      4638        41  POPC      H14C           12.7723375724       45.7684424576       64.4732614276  MEMB      35              0.0000000000
      4639        41  POPC      C15            10.7880257738       45.0197635269       62.8025329233  MEMB      35              0.0000000000
      4640        41  POPC      H15A           11.7686908530       44.6724041003       62.4911280275  MEMB      35              0.0000000000
      4641        41  POPC      H15B           10.6073032471       45.9498424174       62.2823765801  MEMB      35              0.0000000000
      4642        41  POPC      H15C           10.0484601516       44.2908909099       62.4859373623  MEMB      35              0.0000000000
      4643        41  POPC      C11             9.7015408916       42.7720187454       64.7290814557  MEMB      35              0.0000000000
      4644        41  POPC      H11A           10.0119415369       41.8095626147       65.2075182358  MEMB      35              0.0000000000
      4645        41  POPC      H11B            9.5135519790       42.5878057342       63.6468225678  MEMB      35              0.0000000000
      4646        41  POPC      P               7.2764972924       42.4431937388       65.7142398873  MEMB      35              0.0000000000
      4647        41  POPC      O13             6.4322970831       43.2845974526       66.5832751554  MEMB      35              0.0000000000
      4648        41  POPC      O14             7.6648228004       41.1365245848       66.2857163341  MEMB      35              0.0000000000
      4649        41  POPC      O12             8.5508368058       43.2832745705       65.3586559668  MEMB      35              0.0000000000
      4650        41  POPC      O11             6.6003940109       42.2565611926       64.2896644540  MEMB      35              0.0000000000
      4651        41  POPC      C1              6.4170300185       43.4127261611       63.4578100063  MEMB      35              0.0000000000
      4652        41  POPC      HA              7.3142863218       44.0732869572       63.4687653186  MEMB      35              0.0000000000
      4653        41  POPC      HB              5.5456136039       43.9995607147       63.8324205987  MEMB      35              0.0000000000
      4654        41  POPC      C2              6.1844317484       43.0511526083       61.9578015650  MEMB      35              0.0000000000
      4655        41  POPC      HS              5.2559883392       42.4365644239       61.8960559780  MEMB      35              0.0000000000
      4656        41  POPC      O21             7.3178797903       42.3544546991       61.4237515860  MEMB      35              0.0000000000
      4657        41  POPC      C21             7.2593747336       41.0398133942       61.4514881675  MEMB      35              0.0000000000
      4658        41  POPC      O22             6.4509323483       40.3395827929       62.0358215229  MEMB      35              0.0000000000
      4659        41  POPC      C22             8.3180223665       40.5109767789       60.4824687008  MEMB      35              0.0000000000
      4660        41  POPC      H2R             8.2784463589       39.4036040616       60.5144098428  MEMB      35              0.0000000000
      4661        41  POPC      H2S             9.3179454755       40.8406474850       60.8254757706  MEMB      35              0.0000000000
      4662        41  POPC      C3              5.9620441815       44.3397568497       61.0854689461  MEMB      35              0.0000000000
      4663        41  POPC      HX              6.6828395124       45.0962971586       61.4665050751  MEMB      35              0.0000000000
      4664        41  POPC      HY              4.9510654158       44.7443957652       61.2922326305  MEMB      35              0.0000000000
      4665        41  POPC      O31             6.1932395395       44.2096577545       59.6553119032  MEMB      35              0.0000000000
      4666        41  POPC      C31             5.4236829300       43.3447669304       58.9998474771  MEMB      35              0.0000000000
      4667        41  POPC      O32             4.5828643861       42.6246516117       59.5099168739  MEMB      35              0.0000000000
      4668        41  POPC      C32             5.7085046113       43.2860922951       57.4937529751  MEMB      35              0.0000000000
      4669        41  POPC      H2X             4.7148132138       43.1337890548       57.0175275499  MEMB      35              0.0000000000
      4670        41  POPC      H2Y             6.2995788678       42.3663015504       57.3143605473  MEMB      35              0.0000000000
      4671        41  POPC      C23             8.0548068442       40.9926968835       59.0330812601  MEMB      35              0.0000000000
      4672        41  POPC      H3R             8.1842526714       42.0957075547       58.9674260480  MEMB      35              0.0000000000
      4673        41  POPC      H3S             7.0012891397       40.7474437965       58.7645811142  MEMB      35              0.0000000000
      4674        41  POPC      C24             8.9582913142       40.3055630883       58.0050942135  MEMB      35              0.0000000000
      4675        41  POPC      H4R             8.8000466182       39.2091913918       58.1291826779  MEMB      35              0.0000000000
      4676        41  POPC      H4S            10.0245920774       40.5265476697       58.2252852001  MEMB      35              0.0000000000
      4677        41  POPC      C25             8.6468756197       40.6568326593       56.5422157955  MEMB      35              0.0000000000
      4678        41  POPC      H5R             7.5435126437       40.6619772016       56.4184537562  MEMB      35              0.0000000000
      4679        41  POPC      H5S             9.0540091042       39.8577192268       55.8784954039  MEMB      35              0.0000000000
      4680        41  POPC      C26             9.2211452184       41.9995014490       56.0694508104  MEMB      35              0.0000000000
      4681        41  POPC      H6R             9.0189313670       42.7992280362       56.8117812497  MEMB      35              0.0000000000
      4682        41  POPC      H6S             8.6938538826       42.2739866217       55.1262597656  MEMB      35              0.0000000000
      4683        41  POPC      C27            10.7201266157       41.9274072540       55.7465464978  MEMB      35              0.0000000000
      4684        41  POPC      H7R            10.8730389175       41.0202484623       55.1220444193  MEMB      35              0.0000000000
      4685        41  POPC      H7S            11.3131490254       41.7915734437       56.6792126845  MEMB      35              0.0000000000
      4686        41  POPC      C28            11.2111823646       43.1632349622       54.9748090317  MEMB      35              0.0000000000
      4687        41  POPC      H8R            11.2965560592       44.0136575805       55.6900768758  MEMB      35              0.0000000000
      4688        41  POPC      H8S            10.4244702437       43.4448144140       54.2402663856  MEMB      35              0.0000000000
      4689        41  POPC      C29            12.5333324157       42.9013027990       54.2961344400  MEMB      35              0.0000000000
      4690        41  POPC      H91            13.3065477098       42.4759681653       54.9564064101  MEMB      35              0.0000000000
      4691        41  POPC      C210           12.8273420160       43.1005426094       52.9961586293  MEMB      35              0.0000000000
      4692        41  POPC      H101           13.8431757004       42.8707219302       52.6500714531  MEMB      35              0.0000000000
      4693        41  POPC      C211           11.9002823325       43.6288018036       51.9292402558  MEMB      35              0.0000000000
      4694        41  POPC      H11R           11.9076943446       44.7417794601       51.9380363213  MEMB      35              0.0000000000
      4695        41  POPC      H11S           10.8565750029       43.3129521620       52.1323885099  MEMB      35              0.0000000000
      4696        41  POPC      C212           12.2522289919       43.1895665261       50.4907367949  MEMB      35              0.0000000000
      4697        41  POPC      H12R           13.2463945087       43.6058100015       50.2152322278  MEMB      35              0.0000000000
      4698        41  POPC      H12S           11.5121551076       43.6528702450       49.7994390984  MEMB      35              0.0000000000
      4699        41  POPC      C213           12.2587253366       41.6664904652       50.2582748930  MEMB      35              0.0000000000
      4700        41  POPC      H13R           13.0971620793       41.2289633573       50.8423745139  MEMB      35              0.0000000000
      4701        41  POPC      H13S           12.4787171268       41.4633139974       49.1863663442  MEMB      35              0.0000000000
      4702        41  POPC      C214           10.9527312744       40.9450619897       50.6452248666  MEMB      35              0.0000000000
      4703        41  POPC      H14R           10.6676225360       41.2151552296       51.6846844933  MEMB      35              0.0000000000
      4704        41  POPC      H14S           11.1266548724       39.8448158166       50.6336377048  MEMB      35              0.0000000000
      4705        41  POPC      C215            9.7903382085       41.2449235336       49.6923962335  MEMB      35              0.0000000000
      4706        41  POPC      H15R            9.8322524544       42.3090619548       49.3742723725  MEMB      35              0.0000000000
      4707        41  POPC      H15S            8.8209430542       41.0996534543       50.2220799104  MEMB      35              0.0000000000
      4708        41  POPC      C216            9.8158244892       40.3241220057       48.4661891102  MEMB      35              0.0000000000
      4709        41  POPC      H16R            9.4447002483       39.3206212823       48.7763911330  MEMB      35              0.0000000000
      4710        41  POPC      H16S           10.8624032748       40.1978051872       48.1100858762  MEMB      35              0.0000000000
      4711        41  POPC      C217            8.9690300929       40.8529873254       47.3080548474  MEMB      35              0.0000000000
      4712        41  POPC      H17R            8.1210589320       41.4343930647       47.7309509364  MEMB      35              0.0000000000
      4713        41  POPC      H17S            8.5374236267       39.9924281048       46.7533631308  MEMB      35              0.0000000000
      4714        41  POPC      C218            9.7659881287       41.7089455508       46.3211956765  MEMB      35              0.0000000000
      4715        41  POPC      H18R           10.5409904110       41.0977171315       45.8105611112  MEMB      35              0.0000000000
      4716        41  POPC      H18S           10.2799284777       42.5314501903       46.8584774345  MEMB      35              0.0000000000
      4717        41  POPC      H18T            9.0972732528       42.1511193548       45.5523915416  MEMB      35              0.0000000000
      4718        41  POPC      C33             6.3933768666       44.4743557613       56.7760125269  MEMB      35              0.0000000000
      4719        41  POPC      H3X             7.4581378613       44.5408802078       57.0907407138  MEMB      35              0.0000000000
      4720        41  POPC      H3Y             5.8966993993       45.4379701929       57.0278959596  MEMB      35              0.0000000000
      4721        41  POPC      C34             6.3007014406       44.2214853373       55.2601462749  MEMB      35              0.0000000000
      4722        41  POPC      H4X             5.2772462596       44.4677907106       54.8988580787  MEMB      35              0.0000000000
      4723        41  POPC      H4Y             6.4409380945       43.1239035710       55.1065839332  MEMB      35              0.0000000000
      4724        41  POPC      C35             7.3511704451       44.9271578698       54.3923028211  MEMB      35              0.0000000000
      4725        41  POPC      H5X             8.3501467500       44.8208896927       54.8739533247  MEMB      35              0.0000000000
      4726        41  POPC      H5Y             7.1247489849       46.0127079969       54.3114902229  MEMB      35              0.0000000000
      4727        41  POPC      C36             7.4208869998       44.2780315174       53.0002562296  MEMB      35              0.0000000000
      4728        41  POPC      H6X             6.4567572201       44.3990438801       52.4614398812  MEMB      35              0.0000000000
      4729        41  POPC      H6Y             7.5779817135       43.1833572029       53.1543640663  MEMB      35              0.0000000000
      4730        41  POPC      C37             8.5830723138       44.7671323131       52.1256493254  MEMB      35              0.0000000000
      4731        41  POPC      H7X             8.8346820189       43.9455370886       51.4126346424  MEMB      35              0.0000000000
      4732        41  POPC      H7Y             9.4777523886       44.9617203730       52.7536969507  MEMB      35              0.0000000000
      4733        41  POPC      C38             8.2661549611       46.0016221709       51.2802665363  MEMB      35              0.0000000000
      4734        41  POPC      H8X             8.0971946220       46.8729886410       51.9459150254  MEMB      35              0.0000000000
      4735        41  POPC      H8Y             7.3194104004       45.8078845558       50.7261401990  MEMB      35              0.0000000000
      4736        41  POPC      C39             9.3863291195       46.3126598026       50.2697239564  MEMB      35              0.0000000000
      4737        41  POPC      H9X             9.8438439706       45.3547914339       49.9356559107  MEMB      35              0.0000000000
      4738        41  POPC      H9Y            10.1887123114       46.8908702252       50.7795878650  MEMB      35              0.0000000000
      4739        41  POPC      C310            8.8869267212       47.0678448066       49.0245201934  MEMB      35              0.0000000000
      4740        41  POPC      H10X            9.4025987740       48.0505133664       48.9627446560  MEMB      35              0.0000000000
      4741        41  POPC      H10Y            7.7996225420       47.2744799948       49.1492673123  MEMB      35              0.0000000000
      4742        41  POPC      C311            9.0702374372       46.3011249954       47.7002137401  MEMB      35              0.0000000000
      4743        41  POPC      H11X           10.1439139992       46.1186751649       47.5011434819  MEMB      35              0.0000000000
      4744        41  POPC      H11Y            8.6808053222       46.9295853093       46.8684230443  MEMB      35              0.0000000000
      4745        41  POPC      C312            8.3457571069       44.9492800333       47.7078404083  MEMB      35              0.0000000000
      4746        41  POPC      H12X            7.7769933551       44.9257030638       48.6597223168  MEMB      35              0.0000000000
      4747        41  POPC      H12Y            9.0771374091       44.1170455710       47.7610972207  MEMB      35              0.0000000000
      4748        41  POPC      C313            7.3876086737       44.7510013321       46.5244167126  MEMB      35              0.0000000000
      4749        41  POPC      H13X            7.9653428991       44.5300272454       45.6011017444  MEMB      35              0.0000000000
      4750        41  POPC      H13Y            6.8350586224       45.7029934254       46.3569305368  MEMB      35              0.0000000000
      4751        41  POPC      C314            6.3300521131       43.6597540180       46.7561957851  MEMB      35              0.0000000000
      4752        41  POPC      H14X            6.7859348862       42.6522917807       46.6776656287  MEMB      35              0.0000000000
      4753        41  POPC      H14Y            5.5687322654       43.7411350442       45.9466748407  MEMB      35              0.0000000000
      4754        41  POPC      C315            5.6360118824       43.8122967545       48.1147946893  MEMB      35              0.0000000000
      4755        41  POPC      H15X            5.4293629420       44.8966257316       48.2707632056  MEMB      35              0.0000000000
      4756        41  POPC      H15Y            6.3199224645       43.4903825499       48.9324025135  MEMB      35              0.0000000000
      4757        41  POPC      C316            4.3374111869       43.0384553725       48.2545953120  MEMB      35              0.0000000000
      4758        41  POPC      H16X            3.6963875551       43.5421138706       49.0032654241  MEMB      35              0.0000000000
      4759        41  POPC      H16Y            4.5341930932       41.9989103170       48.5875825014  MEMB      35              0.0000000000
      4760        41  POPC      H16Z            3.7732796157       43.0149706007       47.2999423550  MEMB      35              0.0000000000
      4761        42  POPC      N              61.5953750503       40.5779310422       66.2855958631  MEMB      36              0.0000000000
      4762        42  POPC      C12            62.5653238997       41.2963640150       65.3418905064  MEMB      36              0.0000000000
      4763        42  POPC      H12A           62.9016542545       40.5956947534       64.5779115593  MEMB      36              0.0000000000
      4764        42  POPC      H12B           63.4678448334       41.5548269926       65.8881581270  MEMB      36              0.0000000000
      4765        42  POPC      C13            60.7728478289       39.6484208483       65.4310472758  MEMB      36              0.0000000000
      4766        42  POPC      H13A           61.4099278912       38.9564891450       64.8783043488  MEMB      36              0.0000000000
      4767        42  POPC      H13B           60.1002094460       39.0501210701       66.0205134134  MEMB      36              0.0000000000
      4768        42  POPC      H13C           60.2167763706       40.2036428910       64.6654074565  MEMB      36              0.0000000000
      4769        42  POPC      C14            62.2918353692       39.7579026495       67.3285059333  MEMB      36              0.0000000000
      4770        42  POPC      H14A           61.5804605332       39.3656386569       68.0459760797  MEMB      36              0.0000000000
      4771        42  POPC      H14B           62.8426916769       38.9284992882       66.8789834516  MEMB      36              0.0000000000
      4772        42  POPC      H14C           62.9999724233       40.3464951481       67.9105595553  MEMB      36              0.0000000000
      4773        42  POPC      C15            60.7104894317       41.5682219111       66.9753052424  MEMB      36              0.0000000000
      4774        42  POPC      H15A           61.2827205644       42.2450722381       67.5957733950  MEMB      36              0.0000000000
      4775        42  POPC      H15B           59.9617787513       41.1023992136       67.6084021258  MEMB      36              0.0000000000
      4776        42  POPC      H15C           60.1686500968       42.1125453283       66.2037496683  MEMB      36              0.0000000000
      4777        42  POPC      C11            62.0800757536       42.5908145604       64.5926950798  MEMB      36              0.0000000000
      4778        42  POPC      H11A           62.8559942812       42.8640197275       63.8367502353  MEMB      36              0.0000000000
      4779        42  POPC      H11B           62.1056121239       43.4160165430       65.3224556016  MEMB      36              0.0000000000
      4780        42  POPC      P              60.5524516779       41.9278977283       62.5616820835  MEMB      36              0.0000000000
      4781        42  POPC      O13            59.7437337313       40.7050128902       62.7565685479  MEMB      36              0.0000000000
      4782        42  POPC      O14            61.8736637395       41.7559489430       61.9323652662  MEMB      36              0.0000000000
      4783        42  POPC      O12            60.7570051737       42.5475918691       64.0277469438  MEMB      36              0.0000000000
      4784        42  POPC      O11            59.7214440611       42.9840341823       61.7103930881  MEMB      36              0.0000000000
      4785        42  POPC      C1             58.5455466371       43.6303539584       62.1870325727  MEMB      36              0.0000000000
      4786        42  POPC      HA             58.8049748603       44.3230906433       63.0157406187  MEMB      36              0.0000000000
      4787        42  POPC      HB             57.8292655111       42.8709758308       62.5772342632  MEMB      36              0.0000000000
      4788        42  POPC      C2             57.8033696474       44.4401603417       61.0621274786  MEMB      36              0.0000000000
      4789        42  POPC      HS             56.7936882251       44.6954395749       61.4667991200  MEMB      36              0.0000000000
      4790        42  POPC      O21            57.6989798092       43.6677195374       59.8499417443  MEMB      36              0.0000000000
      4791        42  POPC      C21            56.8083193855       42.7146332891       59.8833426241  MEMB      36              0.0000000000
      4792        42  POPC      O22            55.8740698390       42.6509886730       60.6687352340  MEMB      36              0.0000000000
      4793        42  POPC      C22            57.1037708133       41.7214133764       58.7533623350  MEMB      36              0.0000000000
      4794        42  POPC      H2R            56.7216327163       42.1386230643       57.8028497219  MEMB      36              0.0000000000
      4795        42  POPC      H2S            56.5382816831       40.8016507097       58.9760861373  MEMB      36              0.0000000000
      4796        42  POPC      C3             58.4653716991       45.8056823056       60.6905749864  MEMB      36              0.0000000000
      4797        42  POPC      HX             58.7902727986       46.3469349570       61.6064268559  MEMB      36              0.0000000000
      4798        42  POPC      HY             57.6778497482       46.4308951387       60.2073424636  MEMB      36              0.0000000000
      4799        42  POPC      O31            59.5247474857       45.6333159003       59.7296417626  MEMB      36              0.0000000000
      4800        42  POPC      C31            60.6923841385       45.2920043555       60.2598722734  MEMB      36              0.0000000000
      4801        42  POPC      O32            61.0555128296       45.5772268855       61.3880979525  MEMB      36              0.0000000000
      4802        42  POPC      C32            61.5175850250       44.5698701189       59.1971503368  MEMB      36              0.0000000000
      4803        42  POPC      H2X            60.8178111009       43.9480030742       58.6031606351  MEMB      36              0.0000000000
      4804        42  POPC      H2Y            62.2230885614       43.8865472027       59.7172371489  MEMB      36              0.0000000000
      4805        42  POPC      C23            58.6055950951       41.3652242809       58.6149319322  MEMB      36              0.0000000000
      4806        42  POPC      H3R            59.1007626678       41.3404260878       59.6154895567  MEMB      36              0.0000000000
      4807        42  POPC      H3S            59.0997326832       42.1739054354       58.0310837663  MEMB      36              0.0000000000
      4808        42  POPC      C24            58.8477457335       40.0041566572       57.9356886969  MEMB      36              0.0000000000
      4809        42  POPC      H4R            57.9160180257       39.6859916091       57.4235668853  MEMB      36              0.0000000000
      4810        42  POPC      H4S            59.0688479260       39.2418134913       58.7163503081  MEMB      36              0.0000000000
      4811        42  POPC      C25            59.9825237885       40.0204334867       56.8946013857  MEMB      36              0.0000000000
      4812        42  POPC      H5R            59.7285549330       40.7421009060       56.0856592922  MEMB      36              0.0000000000
      4813        42  POPC      H5S            60.0719893521       39.0132813082       56.4311414924  MEMB      36              0.0000000000
      4814        42  POPC      C26            61.3432769363       40.4102194872       57.4942278953  MEMB      36              0.0000000000
      4815        42  POPC      H6R            61.6719661194       39.6248690696       58.2107034416  MEMB      36              0.0000000000
      4816        42  POPC      H6S            61.2339784523       41.3545579188       58.0736373187  MEMB      36              0.0000000000
      4817        42  POPC      C27            62.4354094483       40.6389240929       56.4358185281  MEMB      36              0.0000000000
      4818        42  POPC      H7R            63.3358556997       41.0311706357       56.9652093970  MEMB      36              0.0000000000
      4819        42  POPC      H7S            62.0916716529       41.4217827974       55.7221123051  MEMB      36              0.0000000000
      4820        42  POPC      C28            62.8237724935       39.3646502541       55.6674867153  MEMB      36              0.0000000000
      4821        42  POPC      H8R            61.9582771878       39.0128283770       55.0647846814  MEMB      36              0.0000000000
      4822        42  POPC      H8S            63.0465476172       38.5653380985       56.4097798993  MEMB      36              0.0000000000
      4823        42  POPC      C29            64.0420443691       39.6032437173       54.8142017710  MEMB      36              0.0000000000
      4824        42  POPC      H91            64.9894321472       39.3268714317       55.3032102166  MEMB      36              0.0000000000
      4825        42  POPC      C210           64.0641608521       40.1388675106       53.5806543701  MEMB      36              0.0000000000
      4826        42  POPC      H101           65.0301147993       40.2665329612       53.0661809701  MEMB      36              0.0000000000
      4827        42  POPC      C211           62.8546945965       40.6036163403       52.8117037238  MEMB      36              0.0000000000
      4828        42  POPC      H11R           62.7191228405       41.7014747159       52.9449212680  MEMB      36              0.0000000000
      4829        42  POPC      H11S           61.9218314694       40.1217410071       53.1846158310  MEMB      36              0.0000000000
      4830        42  POPC      C212           62.9668927852       40.3142523238       51.3058716158  MEMB      36              0.0000000000
      4831        42  POPC      H12R           63.2841868497       39.2618524258       51.1249628018  MEMB      36              0.0000000000
      4832        42  POPC      H12S           63.7372951080       40.9832044871       50.8585647838  MEMB      36              0.0000000000
      4833        42  POPC      C213           61.6150866285       40.5492398387       50.6233485349  MEMB      36              0.0000000000
      4834        42  POPC      H13R           61.1928527809       41.5032371649       51.0047125302  MEMB      36              0.0000000000
      4835        42  POPC      H13S           60.9174104657       39.7304605870       50.9135376676  MEMB      36              0.0000000000
      4836        42  POPC      C214           61.6649969774       40.6650827871       49.0976424722  MEMB      36              0.0000000000
      4837        42  POPC      H14R           62.1160138761       41.6461228093       48.8267935739  MEMB      36              0.0000000000
      4838        42  POPC      H14S           60.6159857270       40.6714020334       48.7262225136  MEMB      36              0.0000000000
      4839        42  POPC      C215           62.4479972067       39.5431293720       48.4042267402  MEMB      36              0.0000000000
      4840        42  POPC      H15R           62.2382071060       38.5779762573       48.9184457911  MEMB      36              0.0000000000
      4841        42  POPC      H15S           63.5360665633       39.7466474434       48.5137497179  MEMB      36              0.0000000000
      4842        42  POPC      C216           62.0941119847       39.3765585647       46.9162393980  MEMB      36              0.0000000000
      4843        42  POPC      H16R           61.1036291323       38.8709032106       46.8573515443  MEMB      36              0.0000000000
      4844        42  POPC      H16S           62.8333384330       38.7012047004       46.4338592232  MEMB      36              0.0000000000
      4845        42  POPC      C217           61.9812656116       40.6844409523       46.1139739719  MEMB      36              0.0000000000
      4846        42  POPC      H17R           61.1192808093       41.2596098196       46.5118793204  MEMB      36              0.0000000000
      4847        42  POPC      H17S           61.7380178384       40.4248265678       45.0593052984  MEMB      36              0.0000000000
      4848        42  POPC      C218           63.2040256297       41.6002065823       46.1374209588  MEMB      36              0.0000000000
      4849        42  POPC      H18R           62.9421130103       42.6117882563       45.7599069976  MEMB      36              0.0000000000
      4850        42  POPC      H18S           64.0052951111       41.1968786987       45.4902098595  MEMB      36              0.0000000000
      4851        42  POPC      H18T           63.6092524086       41.7099506249       47.1651929567  MEMB      36              0.0000000000
      4852        42  POPC      C33            62.2827261444       45.5658749708       58.3009030381  MEMB      36              0.0000000000
      4853        42  POPC      H3X            63.3549627771       45.5643678150       58.6037490331  MEMB      36              0.0000000000
      4854        42  POPC      H3Y            61.8976699969       46.5987026411       58.4552090752  MEMB      36              0.0000000000
      4855        42  POPC      C34            62.1864877620       45.2868528518       56.7936071607  MEMB      36              0.0000000000
      4856        42  POPC      H4X            62.6585666084       44.3092253423       56.5503683383  MEMB      36              0.0000000000
      4857        42  POPC      H4Y            62.7750037114       46.0960803579       56.3057288636  MEMB      36              0.0000000000
      4858        42  POPC      C35            60.7644529958       45.3401097831       56.2127734435  MEMB      36              0.0000000000
      4859        42  POPC      H5X            60.2109308494       46.1582127442       56.7214636380  MEMB      36              0.0000000000
      4860        42  POPC      H5Y            60.2149995139       44.4030179642       56.4442182198  MEMB      36              0.0000000000
      4861        42  POPC      C36            60.7451851428       45.6048956756       54.6950122003  MEMB      36              0.0000000000
      4862        42  POPC      H6X            61.6637498315       46.1601893726       54.4057829558  MEMB      36              0.0000000000
      4863        42  POPC      H6Y            59.8835011760       46.2607664072       54.4396583463  MEMB      36              0.0000000000
      4864        42  POPC      C37            60.6188769237       44.3274810666       53.8527986484  MEMB      36              0.0000000000
      4865        42  POPC      H7X            61.0897498932       43.4806393430       54.3983968737  MEMB      36              0.0000000000
      4866        42  POPC      H7Y            61.1729719401       44.4592707586       52.8943984578  MEMB      36              0.0000000000
      4867        42  POPC      C38            59.1568846889       43.9994981530       53.5083828093  MEMB      36              0.0000000000
      4868        42  POPC      H8X            58.8102806185       44.7516606887       52.7650021823  MEMB      36              0.0000000000
      4869        42  POPC      H8Y            58.5246778415       44.1043128314       54.4180566857  MEMB      36              0.0000000000
      4870        42  POPC      C39            58.9944612216       42.5813186612       52.9457798248  MEMB      36              0.0000000000
      4871        42  POPC      H9X            59.0582346134       41.8552940582       53.7875211673  MEMB      36              0.0000000000
      4872        42  POPC      H9Y            59.8549768505       42.3670796669       52.2825294432  MEMB      36              0.0000000000
      4873        42  POPC      C310           57.6876805716       42.3448598866       52.1678013127  MEMB      36              0.0000000000
      4874        42  POPC      H10X           56.8222301966       42.5525075687       52.8362873055  MEMB      36              0.0000000000
      4875        42  POPC      H10Y           57.6404172995       41.2666862571       51.8875226546  MEMB      36              0.0000000000
      4876        42  POPC      C311           57.5322455881       43.1742130988       50.8769321304  MEMB      36              0.0000000000
      4877        42  POPC      H11X           57.4508608548       44.2537425452       51.1288926293  MEMB      36              0.0000000000
      4878        42  POPC      H11Y           56.5723835465       42.8731822068       50.3995477331  MEMB      36              0.0000000000
      4879        42  POPC      C312           58.6722252189       42.9852008275       49.8617135199  MEMB      36              0.0000000000
      4880        42  POPC      H12X           58.7438206452       41.9074768982       49.5937792415  MEMB      36              0.0000000000
      4881        42  POPC      H12Y           59.6380688687       43.2768937203       50.3319558439  MEMB      36              0.0000000000
      4882        42  POPC      C313           58.5164065415       43.8284474230       48.5828498628  MEMB      36              0.0000000000
      4883        42  POPC      H13X           59.4051556852       43.6474732940       47.9367164769  MEMB      36              0.0000000000
      4884        42  POPC      H13Y           58.5336246709       44.9014125195       48.8747641431  MEMB      36              0.0000000000
      4885        42  POPC      C314           57.2358152304       43.5644319590       47.7705395427  MEMB      36              0.0000000000
      4886        42  POPC      H14X           57.2421448978       44.2269453972       46.8747823326  MEMB      36              0.0000000000
      4887        42  POPC      H14Y           56.3515445274       43.8510465985       48.3819660012  MEMB      36              0.0000000000
      4888        42  POPC      C315           57.0694509275       42.1103941647       47.3006648105  MEMB      36              0.0000000000
      4889        42  POPC      H15X           56.0930587724       42.0153005979       46.7785114811  MEMB      36              0.0000000000
      4890        42  POPC      H15Y           57.0229809070       41.4419651614       48.1900889501  MEMB      36              0.0000000000
      4891        42  POPC      C316           58.1814476618       41.6278272479       46.3675688769  MEMB      36              0.0000000000
      4892        42  POPC      H16X           58.2968903215       42.3115909887       45.4999811736  MEMB      36              0.0000000000
      4893        42  POPC      H16Y           57.9619084098       40.6072536972       45.9878852205  MEMB      36              0.0000000000
      4894        42  POPC      H16Z           59.1404752685       41.5868128151       46.9212555288  MEMB      36              0.0000000000
      4895        43  POPS      N               4.3142403908       29.3244904138       66.8014003711  MEMB      37              0.0000000000
      4896        43  POPS      HN1             3.3637371531       29.5869507122       67.1429807134  MEMB      37              0.0000000000
      4897        43  POPS      HN2             4.2332086011       28.5159425261       66.1305916870  MEMB      37              0.0000000000
      4898        43  POPS      HN3             5.0367216066       29.1345564277       67.5221067875  MEMB      37              0.0000000000
      4899        43  POPS      C12             4.6844919218       30.4945750391       65.9696898517  MEMB      37              0.0000000000
      4900        43  POPS      H12A            5.5417163178       30.9648002844       66.4154733676  MEMB      37              0.0000000000
      4901        43  POPS      C13             3.5088723873       31.4938319269       65.9464101910  MEMB      37              0.0000000000
      4902        43  POPS      O13A            2.4136601142       31.1548803203       66.4865601207  MEMB      37              0.0000000000
      4903        43  POPS      O13B            3.6935574315       32.6147557271       65.4208824316  MEMB      37              0.0000000000
      4904        43  POPS      C11             5.0341351561       29.9945529708       64.5449303490  MEMB      37              0.0000000000
      4905        43  POPS      H11A            5.6202014403       30.7851186839       64.0235471015  MEMB      37              0.0000000000
      4906        43  POPS      H11B            4.0983444252       29.8642269712       63.9455650676  MEMB      37              0.0000000000
      4907        43  POPS      P               5.1802571378       27.4048570569       64.2119501154  MEMB      37              0.0000000000
      4908        43  POPS      O13             4.0502700171       27.1614451505       65.1595813952  MEMB      37              0.0000000000
      4909        43  POPS      O14             6.2419455590       26.3859860622       64.1537634103  MEMB      37              0.0000000000
      4910        43  POPS      O12             5.8204539263       28.7962075580       64.6288339151  MEMB      37              0.0000000000
      4911        43  POPS      O11             4.6172132481       27.7416531352       62.7690551759  MEMB      37              0.0000000000
      4912        43  POPS      C1              3.5406762873       26.9898365271       62.1916221173  MEMB      37              0.0000000000
      4913        43  POPS      HA              2.5744947283       27.3485450254       62.6059142114  MEMB      37              0.0000000000
      4914        43  POPS      HB              3.6216480220       25.9113898279       62.4490539053  MEMB      37              0.0000000000
      4915        43  POPS      C2              3.4693359061       27.0583868612       60.6167738680  MEMB      37              0.0000000000
      4916        43  POPS      HS              2.9052150133       26.1536720626       60.2883034455  MEMB      37              0.0000000000
      4917        43  POPS      O21             4.7827119436       27.0902068881       60.0334536843  MEMB      37              0.0000000000
      4918        43  POPS      C21             4.9484254886       26.6015148836       58.8121008476  MEMB      37              0.0000000000
      4919        43  POPS      O22             4.0969594346       26.0612095601       58.1277683611  MEMB      37              0.0000000000
      4920        43  POPS      C22             6.3941824719       26.9107779893       58.4065894113  MEMB      37              0.0000000000
      4921        43  POPS      H2R             7.0431313752       26.3849184364       59.1371799058  MEMB      37              0.0000000000
      4922        43  POPS      H2S             6.5656512903       27.9998509985       58.5292329776  MEMB      37              0.0000000000
      4923        43  POPS      C3              2.6689527508       28.3224744122       60.1837070554  MEMB      37              0.0000000000
      4924        43  POPS      HX              3.3139794076       29.2200526128       60.3307643999  MEMB      37              0.0000000000
      4925        43  POPS      HY              1.8270358507       28.4168842827       60.9006899775  MEMB      37              0.0000000000
      4926        43  POPS      O31             2.1008768632       28.2021971349       58.8577538682  MEMB      37              0.0000000000
      4927        43  POPS      C31             2.7375223126       28.8519933443       57.8882715342  MEMB      37              0.0000000000
      4928        43  POPS      O32             3.6569508568       29.6341779967       58.0318016427  MEMB      37              0.0000000000
      4929        43  POPS      C32             2.1236105233       28.4221677759       56.5532560475  MEMB      37              0.0000000000
      4930        43  POPS      H2X             1.0780972409       28.7842364612       56.5201795923  MEMB      37              0.0000000000
      4931        43  POPS      H2Y             2.1141274756       27.3106887532       56.5483148670  MEMB      37              0.0000000000
      4932        43  POPS      C23             6.7960541737       26.4708813135       56.9795360991  MEMB      37              0.0000000000
      4933        43  POPS      H3R             6.3628698540       25.4822232420       56.7260927450  MEMB      37              0.0000000000
      4934        43  POPS      H3S             7.9041603513       26.3474734696       56.9923319237  MEMB      37              0.0000000000
      4935        43  POPS      C24             6.4654182404       27.4916476163       55.8791007978  MEMB      37              0.0000000000
      4936        43  POPS      H4R             6.2052234028       28.4744986601       56.3331815569  MEMB      37              0.0000000000
      4937        43  POPS      H4S             5.5811125968       27.1286449270       55.3168854936  MEMB      37              0.0000000000
      4938        43  POPS      C25             7.6466357189       27.6969919653       54.9179850576  MEMB      37              0.0000000000
      4939        43  POPS      H5R             7.9442555769       26.7142279173       54.4905918580  MEMB      37              0.0000000000
      4940        43  POPS      H5S             8.4918423618       28.0843637638       55.5325275238  MEMB      37              0.0000000000
      4941        43  POPS      C26             7.4128200842       28.6988136687       53.7782474855  MEMB      37              0.0000000000
      4942        43  POPS      H6R             8.3557392725       28.8066602914       53.1958151760  MEMB      37              0.0000000000
      4943        43  POPS      H6S             7.1977342420       29.6942541573       54.2292061081  MEMB      37              0.0000000000
      4944        43  POPS      C27             6.2641821482       28.3456625845       52.8168836465  MEMB      37              0.0000000000
      4945        43  POPS      H7R             6.1261079676       29.2012334854       52.1187609580  MEMB      37              0.0000000000
      4946        43  POPS      H7S             5.3246877865       28.2640771565       53.4044809913  MEMB      37              0.0000000000
      4947        43  POPS      C28             6.4471268270       27.0476094612       52.0040364172  MEMB      37              0.0000000000
      4948        43  POPS      H8R             5.4929678314       26.8520796567       51.4624246489  MEMB      37              0.0000000000
      4949        43  POPS      H8S             6.5933430942       26.1929540826       52.7009024862  MEMB      37              0.0000000000
      4950        43  POPS      C29             7.5987644157       27.1543219903       51.0379986347  MEMB      37              0.0000000000
      4951        43  POPS      H91             8.5908205470       26.9494921330       51.4693961163  MEMB      37              0.0000000000
      4952        43  POPS      C210            7.5126966682       27.4621502691       49.7324118237  MEMB      37              0.0000000000
      4953        43  POPS      H101            8.4425555872       27.5436517432       49.1484040363  MEMB      37              0.0000000000
      4954        43  POPS      C211            6.2544918246       27.7636075769       48.9572796706  MEMB      37              0.0000000000
      4955        43  POPS      H11R            5.4536816786       27.0244767066       49.1920011437  MEMB      37              0.0000000000
      4956        43  POPS      H11S            6.4600327527       27.6617012666       47.8666784454  MEMB      37              0.0000000000
      4957        43  POPS      C212            5.6837426108       29.1772698423       49.1952510403  MEMB      37              0.0000000000
      4958        43  POPS      H12R            5.1854339018       29.2308382352       50.1854616518  MEMB      37              0.0000000000
      4959        43  POPS      H12S            4.8950637861       29.3396282630       48.4326749341  MEMB      37              0.0000000000
      4960        43  POPS      C213            6.7229082486       30.3043669105       49.0772925889  MEMB      37              0.0000000000
      4961        43  POPS      H13R            7.4124725248       30.0534289582       48.2447204089  MEMB      37              0.0000000000
      4962        43  POPS      H13S            7.3362139027       30.3321958804       50.0063888373  MEMB      37              0.0000000000
      4963        43  POPS      C214            6.1154657234       31.7001022520       48.8351449662  MEMB      37              0.0000000000
      4964        43  POPS      H14R            6.9453755309       32.4434827023       48.8142067002  MEMB      37              0.0000000000
      4965        43  POPS      H14S            5.4572793701       31.9561935368       49.6952900719  MEMB      37              0.0000000000
      4966        43  POPS      C215            5.3074991760       31.8390447754       47.5298837353  MEMB      37              0.0000000000
      4967        43  POPS      H15R            4.9360281486       32.8856550888       47.4483457309  MEMB      37              0.0000000000
      4968        43  POPS      H15S            4.4122635447       31.1827286334       47.5701382992  MEMB      37              0.0000000000
      4969        43  POPS      C216            6.1203392819       31.5056223091       46.2692894666  MEMB      37              0.0000000000
      4970        43  POPS      H16R            6.5944267764       30.5056934810       46.3688004201  MEMB      37              0.0000000000
      4971        43  POPS      H16S            6.9264879227       32.2616449502       46.1708012726  MEMB      37              0.0000000000
      4972        43  POPS      C217            5.2803765465       31.4789742581       44.9896458073  MEMB      37              0.0000000000
      4973        43  POPS      H17R            4.6521110180       32.3933810615       44.9613491675  MEMB      37              0.0000000000
      4974        43  POPS      H17S            4.5918329218       30.6054355476       45.0384646927  MEMB      37              0.0000000000
      4975        43  POPS      C218            6.1128106972       31.3947443143       43.7089115312  MEMB      37              0.0000000000
      4976        43  POPS      H18R            6.7080093753       32.3219210612       43.5690298013  MEMB      37              0.0000000000
      4977        43  POPS      H18S            5.4546885662       31.2630778119       42.8236506702  MEMB      37              0.0000000000
      4978        43  POPS      H18T            6.8154772167       30.5384311007       43.7576857505  MEMB      37              0.0000000000
      4979        43  POPS      C33             2.9164103870       28.9456355604       55.3341800541  MEMB      37              0.0000000000
      4980        43  POPS      H3X             3.9591568462       28.5656307683       55.3926291430  MEMB      37              0.0000000000
      4981        43  POPS      H3Y             2.9763785477       30.0573313521       55.3771755424  MEMB      37              0.0000000000
      4982        43  POPS      C34             2.3182377622       28.5346273337       53.9770016510  MEMB      37              0.0000000000
      4983        43  POPS      H4X             3.0235316256       28.8425537163       53.1717942686  MEMB      37              0.0000000000
      4984        43  POPS      H4Y             1.3687673817       29.0974882642       53.8274145387  MEMB      37              0.0000000000
      4985        43  POPS      C35             2.0094206308       27.0333729392       53.8138323261  MEMB      37              0.0000000000
      4986        43  POPS      H5X             1.5459298259       26.8902536050       52.8111848264  MEMB      37              0.0000000000
      4987        43  POPS      H5Y             1.2574454158       26.7339920447       54.5724826603  MEMB      37              0.0000000000
      4988        43  POPS      C36             3.2330054229       26.1095882328       53.9361355072  MEMB      37              0.0000000000
      4989        43  POPS      H6X             3.6740972594       26.2249728106       54.9517206818  MEMB      37              0.0000000000
      4990        43  POPS      H6Y             3.9979519127       26.4283863117       53.1969636864  MEMB      37              0.0000000000
      4991        43  POPS      C37             2.9400748437       24.6088859281       53.7302647310  MEMB      37              0.0000000000
      4992        43  POPS      H7X             2.3910659184       24.2279168610       54.6221794164  MEMB      37              0.0000000000
      4993        43  POPS      H7Y             3.9067878071       24.0664468397       53.6826485038  MEMB      37              0.0000000000
      4994        43  POPS      C38             2.1259206311       24.2466803733       52.4756329475  MEMB      37              0.0000000000
      4995        43  POPS      H8X             1.1048822305       24.6551794625       52.6293705520  MEMB      37              0.0000000000
      4996        43  POPS      H8Y             2.0299498035       23.1409830594       52.3941441936  MEMB      37              0.0000000000
      4997        43  POPS      C39             2.6590168862       24.8130643170       51.1538489767  MEMB      37              0.0000000000
      4998        43  POPS      H9X             3.5264176413       24.2244225705       50.7897470609  MEMB      37              0.0000000000
      4999        43  POPS      H9Y             3.0272255067       25.8457229070       51.3294113815  MEMB      37              0.0000000000
      5000        43  POPS      C310            1.5560142359       24.8702033387       50.0862985882  MEMB      37              0.0000000000
      5001        43  POPS      H10X            0.5777758626       25.0893701005       50.5733358834  MEMB      37              0.0000000000
      5002        43  POPS      H10Y            1.4641477729       23.8733131123       49.6002127815  MEMB      37              0.0000000000
      5003        43  POPS      C311            1.7853136511       25.9581502623       49.0302959415  MEMB      37              0.0000000000
      5004        43  POPS      H11X            1.0043901492       25.8444489140       48.2484991463  MEMB      37              0.0000000000
      5005        43  POPS      H11Y            2.7744116699       25.8101000697       48.5518034230  MEMB      37              0.0000000000
      5006        43  POPS      C312            1.6828202013       27.3899383606       49.5806415344  MEMB      37              0.0000000000
      5007        43  POPS      H12X            2.6012626105       27.6333648034       50.1590253114  MEMB      37              0.0000000000
      5008        43  POPS      H12Y            0.8183947345       27.4409407793       50.2816239899  MEMB      37              0.0000000000
      5009        43  POPS      C313            1.4853558850       28.4594473541       48.4928752599  MEMB      37              0.0000000000
      5010        43  POPS      H13X            1.5223921498       29.4585190445       48.9863647718  MEMB      37              0.0000000000
      5011        43  POPS      H13Y            0.4745027947       28.3545757372       48.0457492290  MEMB      37              0.0000000000
      5012        43  POPS      C314            2.5298285019       28.4224422433       47.3661678296  MEMB      37              0.0000000000
      5013        43  POPS      H14X            3.4705735596       27.9601823230       47.7333335373  MEMB      37              0.0000000000
      5014        43  POPS      H14Y            2.7621564461       29.4708989111       47.0722151006  MEMB      37              0.0000000000
      5015        43  POPS      C315            2.0648020167       27.6820069781       46.1055336631  MEMB      37              0.0000000000
      5016        43  POPS      H15X            1.0799110959       28.0921101380       45.7868389018  MEMB      37              0.0000000000
      5017        43  POPS      H15Y            1.9225937007       26.6052386456       46.3448539662  MEMB      37              0.0000000000
      5018        43  POPS      C316            3.0541287345       27.8054974950       44.9491024504  MEMB      37              0.0000000000
      5019        43  POPS      H16X            4.0657819039       27.4773326915       45.2717152932  MEMB      37              0.0000000000
      5020        43  POPS      H16Y            3.1288025935       28.8604345515       44.6124712567  MEMB      37              0.0000000000
      5021        43  POPS      H16Z            2.7351966935       27.1808472752       44.0870305458  MEMB      37              0.0000000000
      5022        44  POPC      N              25.9562741573        5.7074519138       65.1757391778  MEMB      38              0.0000000000
      5023        44  POPC      C12            26.4319401938        4.2590321011       65.3167075407  MEMB      38              0.0000000000
      5024        44  POPC      H12A           27.5130627343        4.2394037429       65.4107642544  MEMB      38              0.0000000000
      5025        44  POPC      H12B           26.1608431195        3.7213255128       64.4139838627  MEMB      38              0.0000000000
      5026        44  POPC      C13            26.3160598420        6.4724958284       66.4024488551  MEMB      38              0.0000000000
      5027        44  POPC      H13A           27.3783422095        6.4515850824       66.6167207684  MEMB      38              0.0000000000
      5028        44  POPC      H13B           25.9892077005        7.4995322394       66.3494902058  MEMB      38              0.0000000000
      5029        44  POPC      H13C           25.7973666815        6.0098944904       67.2421612647  MEMB      38              0.0000000000
      5030        44  POPC      C14            26.5951079532        6.3419493346       63.9859599393  MEMB      38              0.0000000000
      5031        44  POPC      H14A           26.3173811484        5.8108284300       63.0808952258  MEMB      38              0.0000000000
      5032        44  POPC      H14B           26.2585216174        7.3677159835       63.8702518259  MEMB      38              0.0000000000
      5033        44  POPC      H14C           27.6721457207        6.3335819479       64.0921268774  MEMB      38              0.0000000000
      5034        44  POPC      C15            24.4709314030        5.7347142035       65.0393062412  MEMB      38              0.0000000000
      5035        44  POPC      H15A           24.0169471672        5.2195351303       65.8897802005  MEMB      38              0.0000000000
      5036        44  POPC      H15B           24.1240397240        5.1094093077       64.2195475123  MEMB      38              0.0000000000
      5037        44  POPC      H15C           24.0547719682        6.7194928049       64.9583488708  MEMB      38              0.0000000000
      5038        44  POPC      C11            25.9116007799        3.3675043930       66.4841879325  MEMB      38              0.0000000000
      5039        44  POPC      H11A           26.1414545899        3.8851407118       67.4369874644  MEMB      38              0.0000000000
      5040        44  POPC      H11B           26.4945978980        2.4166313593       66.4954764865  MEMB      38              0.0000000000
      5041        44  POPC      P              23.7812316097        2.3953115052       65.2263239323  MEMB      38              0.0000000000
      5042        44  POPC      O13            22.6842305690        3.3286347400       64.9039733114  MEMB      38              0.0000000000
      5043        44  POPC      O14            23.4569151590        0.9964141624       65.6037880993  MEMB      38              0.0000000000
      5044        44  POPC      O12            24.5241418129        3.0786630445       66.4531001770  MEMB      38              0.0000000000
      5045        44  POPC      O11            24.8819825192        2.3609931888       64.0522939175  MEMB      38              0.0000000000
      5046        44  POPC      C1             24.6330250072        2.9604720595       62.7743700314  MEMB      38              0.0000000000
      5047        44  POPC      HA             24.2261054033        3.9934159845       62.8631041337  MEMB      38              0.0000000000
      5048        44  POPC      HB             23.8631387512        2.3872486958       62.2228011024  MEMB      38              0.0000000000
      5049        44  POPC      C2             25.9176742693        3.0015618205       61.8930803931  MEMB      38              0.0000000000
      5050        44  POPC      HS             26.7622854805        2.6025752587       62.4991696369  MEMB      38              0.0000000000
      5051        44  POPC      O21            26.1726579790        4.3743997695       61.5393094233  MEMB      38              0.0000000000
      5052        44  POPC      C21            27.3118499042        4.6157316818       60.9054329604  MEMB      38              0.0000000000
      5053        44  POPC      O22            28.2420140808        3.8413326011       60.7765213114  MEMB      38              0.0000000000
      5054        44  POPC      C22            27.3225024029        6.1343622625       60.6183908396  MEMB      38              0.0000000000
      5055        44  POPC      H2R            27.9909407115        6.5798574484       61.3825725744  MEMB      38              0.0000000000
      5056        44  POPC      H2S            26.3030566879        6.5459095754       60.7768059165  MEMB      38              0.0000000000
      5057        44  POPC      C3             25.7451309311        2.0908339922       60.6329082695  MEMB      38              0.0000000000
      5058        44  POPC      HX             25.6486100528        1.0504302475       61.0140573754  MEMB      38              0.0000000000
      5059        44  POPC      HY             26.6660382304        2.0904623797       60.0046893008  MEMB      38              0.0000000000
      5060        44  POPC      O31            24.5379502003        2.4056982388       59.9012726120  MEMB      38              0.0000000000
      5061        44  POPC      C31            24.7048766531        3.1350511248       58.8022702248  MEMB      38              0.0000000000
      5062        44  POPC      O32            25.7761116943        3.5185350327       58.3748083514  MEMB      38              0.0000000000
      5063        44  POPC      C32            23.3599039882        3.4460722825       58.1567823037  MEMB      38              0.0000000000
      5064        44  POPC      H2X            23.2388786165        4.5495197841       58.1892988787  MEMB      38              0.0000000000
      5065        44  POPC      H2Y            22.5426222091        2.9844917869       58.7442790331  MEMB      38              0.0000000000
      5066        44  POPC      C23            27.8264697742        6.5812345740       59.2244904526  MEMB      38              0.0000000000
      5067        44  POPC      H3R            28.6021560648        5.8842563435       58.8452644677  MEMB      38              0.0000000000
      5068        44  POPC      H3S            28.3038938385        7.5839324836       59.3343217419  MEMB      38              0.0000000000
      5069        44  POPC      C24            26.7058669620        6.7301505899       58.1864587529  MEMB      38              0.0000000000
      5070        44  POPC      H4R            25.8400583730        7.2825299720       58.6123678276  MEMB      38              0.0000000000
      5071        44  POPC      H4S            26.3473443435        5.7172651486       57.9129510244  MEMB      38              0.0000000000
      5072        44  POPC      C25            27.1506538909        7.4283829083       56.8922050101  MEMB      38              0.0000000000
      5073        44  POPC      H5R            28.1344772123        7.0143022695       56.5746045130  MEMB      38              0.0000000000
      5074        44  POPC      H5S            27.2816893427        8.5172276291       57.0732919010  MEMB      38              0.0000000000
      5075        44  POPC      C26            26.1416153345        7.1911675585       55.7577675096  MEMB      38              0.0000000000
      5076        44  POPC      H6R            25.1446435982        7.5815591148       56.0612732951  MEMB      38              0.0000000000
      5077        44  POPC      H6S            26.0492002285        6.0886221311       55.6309512185  MEMB      38              0.0000000000
      5078        44  POPC      C27            26.5590591107        7.8268886715       54.4194319363  MEMB      38              0.0000000000
      5079        44  POPC      H7R            27.6155151290        7.5486299629       54.2011663832  MEMB      38              0.0000000000
      5080        44  POPC      H7S            26.5239908046        8.9341247937       54.5254498520  MEMB      38              0.0000000000
      5081        44  POPC      C28            25.6755746931        7.4091621493       53.2244400497  MEMB      38              0.0000000000
      5082        44  POPC      H8R            26.0340584381        7.9511648952       52.3196619588  MEMB      38              0.0000000000
      5083        44  POPC      H8S            24.6335965650        7.7544337178       53.4052194016  MEMB      38              0.0000000000
      5084        44  POPC      C29            25.6983619078        5.9140371187       53.0221617512  MEMB      38              0.0000000000
      5085        44  POPC      H91            25.0389031413        5.3519302616       53.7007097245  MEMB      38              0.0000000000
      5086        44  POPC      C210           26.4259886965        5.2277339180       52.1255999178  MEMB      38              0.0000000000
      5087        44  POPC      H101           26.3487951722        4.1310182099       52.1054042536  MEMB      38              0.0000000000
      5088        44  POPC      C211           27.3817611499        5.8035039883       51.1197234568  MEMB      38              0.0000000000
      5089        44  POPC      H11R           28.3060684106        5.1869493544       51.0684838972  MEMB      38              0.0000000000
      5090        44  POPC      H11S           27.6982870314        6.8326132300       51.3960999185  MEMB      38              0.0000000000
      5091        44  POPC      C212           26.7375365999        5.8615320967       49.7285478059  MEMB      38              0.0000000000
      5092        44  POPC      H12R           25.8246604284        6.4995096046       49.7595195279  MEMB      38              0.0000000000
      5093        44  POPC      H12S           26.4290803260        4.8451004483       49.4040693629  MEMB      38              0.0000000000
      5094        44  POPC      C213           27.7035770708        6.4349865636       48.6907068196  MEMB      38              0.0000000000
      5095        44  POPC      H13R           28.5774603311        5.7505914483       48.5997955618  MEMB      38              0.0000000000
      5096        44  POPC      H13S           28.0624353886        7.4177515283       49.0611556438  MEMB      38              0.0000000000
      5097        44  POPC      C214           27.0589590068        6.6363780671       47.3170412648  MEMB      38              0.0000000000
      5098        44  POPC      H14R           26.2763487949        5.8625573022       47.2132500058  MEMB      38              0.0000000000
      5099        44  POPC      H14S           27.8168494788        6.4831367087       46.5162386277  MEMB      38              0.0000000000
      5100        44  POPC      C215           26.4493082006        8.0301310286       47.1564136827  MEMB      38              0.0000000000
      5101        44  POPC      H15R           27.2832058141        8.7481415747       46.9851274213  MEMB      38              0.0000000000
      5102        44  POPC      H15S           25.9614019667        8.3218898712       48.1122370657  MEMB      38              0.0000000000
      5103        44  POPC      C216           25.4326151935        8.1647695634       46.0089633705  MEMB      38              0.0000000000
      5104        44  POPC      H16R           25.7399549522        7.5493563614       45.1382011864  MEMB      38              0.0000000000
      5105        44  POPC      H16S           25.4588185527        9.2253968932       45.6692985278  MEMB      38              0.0000000000
      5106        44  POPC      C217           23.9866803717        7.8504881399       46.4334401842  MEMB      38              0.0000000000
      5107        44  POPC      H17R           23.6487580682        6.9066745814       45.9520821560  MEMB      38              0.0000000000
      5108        44  POPC      H17S           23.9681909367        7.6668317244       47.5322845964  MEMB      38              0.0000000000
      5109        44  POPC      C218           22.9841041930        8.9653729017       46.1120027288  MEMB      38              0.0000000000
      5110        44  POPC      H18R           22.0082425608        8.7625784588       46.6023427590  MEMB      38              0.0000000000
      5111        44  POPC      H18S           22.8118391422        9.0363290564       45.0189899489  MEMB      38              0.0000000000
      5112        44  POPC      H18T           23.3578127518        9.9489728841       46.4719526640  MEMB      38              0.0000000000
      5113        44  POPC      C33            23.3104649679        2.9883228209       56.6816988381  MEMB      38              0.0000000000
      5114        44  POPC      H3X            23.3633058226        1.8760699784       56.6360314744  MEMB      38              0.0000000000
      5115        44  POPC      H3Y            24.1871089595        3.3981328695       56.1293541448  MEMB      38              0.0000000000
      5116        44  POPC      C34            22.0357149116        3.4695350701       55.9777150542  MEMB      38              0.0000000000
      5117        44  POPC      H4X            21.9676309679        4.5777587383       56.0547740254  MEMB      38              0.0000000000
      5118        44  POPC      H4Y            21.1677969456        3.0379935497       56.5208952315  MEMB      38              0.0000000000
      5119        44  POPC      C35            21.9307716074        3.0857364303       54.4920875473  MEMB      38              0.0000000000
      5120        44  POPC      H5X            22.5674818497        3.7589404073       53.8806760691  MEMB      38              0.0000000000
      5121        44  POPC      H5Y            20.8769275166        3.2836187379       54.1808123089  MEMB      38              0.0000000000
      5122        44  POPC      C36            22.2485029535        1.6121821577       54.1751183861  MEMB      38              0.0000000000
      5123        44  POPC      H6X            21.6016125412        1.3021053567       53.3233156540  MEMB      38              0.0000000000
      5124        44  POPC      H6Y            21.9600730527        0.9696503212       55.0355523016  MEMB      38              0.0000000000
      5125        44  POPC      C37            23.7078809401        1.3147556963       53.7662793093  MEMB      38              0.0000000000
      5126        44  POPC      H7X            23.7506235965        0.2447211484       53.4578182014  MEMB      38              0.0000000000
      5127        44  POPC      H7Y            24.3917906926        1.4279126075       54.6349631597  MEMB      38              0.0000000000
      5128        44  POPC      C38            24.2075139883        2.1929414862       52.6086250774  MEMB      38              0.0000000000
      5129        44  POPC      H8X            24.5291048302        3.1811131021       52.9986270865  MEMB      38              0.0000000000
      5130        44  POPC      H8Y            23.3620674987        2.3862406439       51.9212995562  MEMB      38              0.0000000000
      5131        44  POPC      C39            25.3304937047        1.5669579021       51.7752491608  MEMB      38              0.0000000000
      5132        44  POPC      H9X            25.1695802995        0.4664525042       51.7119351330  MEMB      38              0.0000000000
      5133        44  POPC      H9Y            26.3059314685        1.7359353345       52.2776419283  MEMB      38              0.0000000000
      5134        44  POPC      C310           25.3641711036        2.1112900041       50.3374943444  MEMB      38              0.0000000000
      5135        44  POPC      H10X           25.3087467597        3.2182776785       50.3238723039  MEMB      38              0.0000000000
      5136        44  POPC      H10Y           24.4693910228        1.7200719050       49.8125891788  MEMB      38              0.0000000000
      5137        44  POPC      C311           26.5886138811        1.6257983543       49.5664114567  MEMB      38              0.0000000000
      5138        44  POPC      H11X           26.7133285913        0.5563967954       49.8639856944  MEMB      38              0.0000000000
      5139        44  POPC      H11Y           27.4969185111        2.1828601188       49.8801202553  MEMB      38              0.0000000000
      5140        44  POPC      C312           26.4511526541        1.6255405949       48.0372429683  MEMB      38              0.0000000000
      5141        44  POPC      H12X           25.5334743412        1.0676267211       47.7447779088  MEMB      38              0.0000000000
      5142        44  POPC      H12Y           27.3318721157        1.0793062638       47.6374243487  MEMB      38              0.0000000000
      5143        44  POPC      C313           26.4838196825        2.9775863565       47.3226597231  MEMB      38              0.0000000000
      5144        44  POPC      H13X           27.3797483923        3.5512256675       47.6483450746  MEMB      38              0.0000000000
      5145        44  POPC      H13Y           25.5812829625        3.5616371922       47.5967001222  MEMB      38              0.0000000000
      5146        44  POPC      C314           26.5603267251        2.7494831797       45.8020945206  MEMB      38              0.0000000000
      5147        44  POPC      H14X           25.7398084341        2.0578807227       45.4992974844  MEMB      38              0.0000000000
      5148        44  POPC      H14Y           27.5248092371        2.2454557575       45.5667008626  MEMB      38              0.0000000000
      5149        44  POPC      C315           26.4539137419        4.0164759804       44.9526812877  MEMB      38              0.0000000000
      5150        44  POPC      H15X           26.6459986105        3.7452246242       43.8884206766  MEMB      38              0.0000000000
      5151        44  POPC      H15Y           27.2470364018        4.7356380927       45.2506705913  MEMB      38              0.0000000000
      5152        44  POPC      C316           25.0793216139        4.6743379871       45.0441047377  MEMB      38              0.0000000000
      5153        44  POPC      H16X           25.0067245425        5.5259424984       44.3387994794  MEMB      38              0.0000000000
      5154        44  POPC      H16Y           24.8639281980        5.0420801042       46.0649980960  MEMB      38              0.0000000000
      5155        44  POPC      H16Z           24.2847695737        3.9418279669       44.8121925803  MEMB      38              0.0000000000
      5156        45  POPC      N              63.5730046250       29.6038679278       65.5433939966  MEMB      39              0.0000000000
      5157        45  POPC      C12            62.8006750667       29.4177632773       64.2504159795  MEMB      39              0.0000000000
      5158        45  POPC      H12A           61.7492791333       29.2920794590       64.4916820706  MEMB      39              0.0000000000
      5159        45  POPC      H12B           63.0632214380       28.4816611096       63.7588498560  MEMB      39              0.0000000000
      5160        45  POPC      C13            65.0279471662       29.8222181446       65.2799358211  MEMB      39              0.0000000000
      5161        45  POPC      H13A           65.4750697052       29.0150346962       64.7134355597  MEMB      39              0.0000000000
      5162        45  POPC      H13B           65.1501931821       30.7282335245       64.6755302602  MEMB      39              0.0000000000
      5163        45  POPC      H13C           65.5757800905       29.9624362579       66.2064878781  MEMB      39              0.0000000000
      5164        45  POPC      C14            63.0673145183       30.8083817091       66.2722343503  MEMB      39              0.0000000000
      5165        45  POPC      H14A           63.6722934831       31.0303535763       67.1401185993  MEMB      39              0.0000000000
      5166        45  POPC      H14B           63.0636573677       31.6720033927       65.5972380699  MEMB      39              0.0000000000
      5167        45  POPC      H14C           62.0357955190       30.6701046966       66.5585827751  MEMB      39              0.0000000000
      5168        45  POPC      C15            63.3971334023       28.3990511754       66.4041437556  MEMB      39              0.0000000000
      5169        45  POPC      H15A           64.0431470941       28.4469484686       67.2640475415  MEMB      39              0.0000000000
      5170        45  POPC      H15B           63.6469283223       27.5016980878       65.8307864348  MEMB      39              0.0000000000
      5171        45  POPC      H15C           62.3723473226       28.2437561548       66.7425214216  MEMB      39              0.0000000000
      5172        45  POPC      C11            62.8574288820       30.5759083912       63.2419824691  MEMB      39              0.0000000000
      5173        45  POPC      H11A           62.4178237966       30.2490486339       62.2765608427  MEMB      39              0.0000000000
      5174        45  POPC      H11B           63.9185656059       30.8414702145       63.0510065214  MEMB      39              0.0000000000
      5175        45  POPC      P              62.4190078997       33.1699301377       63.4707313655  MEMB      39              0.0000000000
      5176        45  POPC      O13            62.0241257580       33.8906275816       64.7068263817  MEMB      39              0.0000000000
      5177        45  POPC      O14            61.8033362019       33.4845834304       62.1588156189  MEMB      39              0.0000000000
      5178        45  POPC      O12            62.0890754629       31.6514217404       63.7529862654  MEMB      39              0.0000000000
      5179        45  POPC      O11            63.9963710983       33.0954806079       63.3365234013  MEMB      39              0.0000000000
      5180        45  POPC      C1             64.8149672262       33.4923788934       64.4361133540  MEMB      39              0.0000000000
      5181        45  POPC      HA             64.7574932358       32.7638979528       65.2705192509  MEMB      39              0.0000000000
      5182        45  POPC      HB             64.4839489384       34.4815644190       64.8304282719  MEMB      39              0.0000000000
      5183        45  POPC      C2             66.3109706838       33.6406304826       64.0305655417  MEMB      39              0.0000000000
      5184        45  POPC      HS             66.8082310274       34.2506270716       64.8193654382  MEMB      39              0.0000000000
      5185        45  POPC      O21            66.5470442586       34.2607715163       62.7632079515  MEMB      39              0.0000000000
      5186        45  POPC      C21            65.7031406945       35.0682273015       62.1767314167  MEMB      39              0.0000000000
      5187        45  POPC      O22            64.7392008593       35.6490968244       62.6306352737  MEMB      39              0.0000000000
      5188        45  POPC      C22            66.1531848975       35.1746891578       60.7262747196  MEMB      39              0.0000000000
      5189        45  POPC      H2R            66.5713316185       34.1970646842       60.4086385820  MEMB      39              0.0000000000
      5190        45  POPC      H2S            66.9671955323       35.9184778967       60.6789251604  MEMB      39              0.0000000000
      5191        45  POPC      C3             67.0489287737       32.2584558412       64.0093726909  MEMB      39              0.0000000000
      5192        45  POPC      HX             67.0226855336       31.8774527106       65.0499063264  MEMB      39              0.0000000000
      5193        45  POPC      HY             68.1253337387       32.4106447598       63.7584973497  MEMB      39              0.0000000000
      5194        45  POPC      O31            66.4264352884       31.2615457668       63.1584142064  MEMB      39              0.0000000000
      5195        45  POPC      C31            66.7294408219       31.3678025889       61.8687991680  MEMB      39              0.0000000000
      5196        45  POPC      O32            67.5833196507       32.0756472279       61.3785695909  MEMB      39              0.0000000000
      5197        45  POPC      C32            65.8434025558       30.4361501361       61.0411295760  MEMB      39              0.0000000000
      5198        45  POPC      H2X            65.2794788803       29.7602971146       61.7126917225  MEMB      39              0.0000000000
      5199        45  POPC      H2Y            66.5076697177       29.8186582623       60.4069210116  MEMB      39              0.0000000000
      5200        45  POPC      C23            64.9989402648       35.5569046808       59.7843753518  MEMB      39              0.0000000000
      5201        45  POPC      H3R            64.6566347366       36.5976675414       59.9780472870  MEMB      39              0.0000000000
      5202        45  POPC      H3S            64.1341295553       34.8747834613       59.9669080779  MEMB      39              0.0000000000
      5203        45  POPC      C24            65.4647072864       35.4141271161       58.3366002433  MEMB      39              0.0000000000
      5204        45  POPC      H4R            65.8050937608       34.3621977396       58.1891061758  MEMB      39              0.0000000000
      5205        45  POPC      H4S            66.3385914832       36.0874425603       58.1847670789  MEMB      39              0.0000000000
      5206        45  POPC      C25            64.3758798652       35.7242827707       57.3112279812  MEMB      39              0.0000000000
      5207        45  POPC      H5R            64.0975478721       36.7999145552       57.3726142778  MEMB      39              0.0000000000
      5208        45  POPC      H5S            63.4724706442       35.1221939847       57.5592248373  MEMB      39              0.0000000000
      5209        45  POPC      C26            64.8289292028       35.3804752945       55.8868794543  MEMB      39              0.0000000000
      5210        45  POPC      H6R            63.9709418452       35.5183433973       55.1915524680  MEMB      39              0.0000000000
      5211        45  POPC      H6S            65.1348449980       34.3132433475       55.8611262577  MEMB      39              0.0000000000
      5212        45  POPC      C27            66.0029680164       36.2419034903       55.4071743147  MEMB      39              0.0000000000
      5213        45  POPC      H7R            66.8783790279       36.1414014372       56.0846228866  MEMB      39              0.0000000000
      5214        45  POPC      H7S            65.6716510092       37.3027687590       55.4682536016  MEMB      39              0.0000000000
      5215        45  POPC      C28            66.4191686564       35.9447968272       53.9564324240  MEMB      39              0.0000000000
      5216        45  POPC      H8R            66.8989462762       36.8758167788       53.5897734368  MEMB      39              0.0000000000
      5217        45  POPC      H8S            65.5050923348       35.7959181499       53.3391247906  MEMB      39              0.0000000000
      5218        45  POPC      C29            67.4205691940       34.8277837857       53.7918757585  MEMB      39              0.0000000000
      5219        45  POPC      H91            68.4061012627       35.0499332817       54.2327430430  MEMB      39              0.0000000000
      5220        45  POPC      C210           67.2415952512       33.6327645160       53.1960689763  MEMB      39              0.0000000000
      5221        45  POPC      H101           68.0970450592       32.9426130996       53.1460915092  MEMB      39              0.0000000000
      5222        45  POPC      C211           65.9850064398       33.1061584846       52.5502811003  MEMB      39              0.0000000000
      5223        45  POPC      H11R           65.0937580641       33.5561672777       53.0425903477  MEMB      39              0.0000000000
      5224        45  POPC      H11S           65.9303725028       32.0103867956       52.7418460066  MEMB      39              0.0000000000
      5225        45  POPC      C212           65.7750225560       33.3075051648       51.0346741648  MEMB      39              0.0000000000
      5226        45  POPC      H12R           65.4117886221       34.3386885386       50.8447252119  MEMB      39              0.0000000000
      5227        45  POPC      H12S           64.9425760127       32.6340678372       50.7291865916  MEMB      39              0.0000000000
      5228        45  POPC      C213           66.9913215381       33.0272139234       50.1369200302  MEMB      39              0.0000000000
      5229        45  POPC      H13R           67.5134742193       32.1065915836       50.4758315522  MEMB      39              0.0000000000
      5230        45  POPC      H13S           67.7052584481       33.8767074892       50.2201222076  MEMB      39              0.0000000000
      5231        45  POPC      C214           66.5583105853       32.8459981209       48.6745382936  MEMB      39              0.0000000000
      5232        45  POPC      H14R           65.8320412611       33.6395353778       48.4010880346  MEMB      39              0.0000000000
      5233        45  POPC      H14S           66.0243987665       31.8743640653       48.5859216931  MEMB      39              0.0000000000
      5234        45  POPC      C215           67.6946529797       32.8627768042       47.6466950277  MEMB      39              0.0000000000
      5235        45  POPC      H15R           68.4416101876       32.0925712558       47.9437437071  MEMB      39              0.0000000000
      5236        45  POPC      H15S           68.2051101632       33.8508368761       47.6333972771  MEMB      39              0.0000000000
      5237        45  POPC      C216           67.1444589186       32.5252456675       46.2524888715  MEMB      39              0.0000000000
      5238        45  POPC      H16R           66.6229646208       33.4067823206       45.8192721365  MEMB      39              0.0000000000
      5239        45  POPC      H16S           66.3857678416       31.7170782892       46.3752546143  MEMB      39              0.0000000000
      5240        45  POPC      C217           68.2116679047       32.0030007139       45.2882962839  MEMB      39              0.0000000000
      5241        45  POPC      H17R           68.9253885890       31.3722524748       45.8651892225  MEMB      39              0.0000000000
      5242        45  POPC      H17S           68.7793346956       32.8631381042       44.8706687526  MEMB      39              0.0000000000
      5243        45  POPC      C218           67.6433983795       31.1470863079       44.1545233808  MEMB      39              0.0000000000
      5244        45  POPC      H18R           68.4558816743       30.7912735976       43.4846065185  MEMB      39              0.0000000000
      5245        45  POPC      H18S           66.9141439846       31.7242107230       43.5478676230  MEMB      39              0.0000000000
      5246        45  POPC      H18T           67.1278696798       30.2594949026       44.5804438274  MEMB      39              0.0000000000
      5247        45  POPC      C33            64.8643780192       31.2261584539       60.1381640477  MEMB      39              0.0000000000
      5248        45  POPC      H3X            65.4147252438       31.9292393160       59.4736279067  MEMB      39              0.0000000000
      5249        45  POPC      H3Y            64.1994276783       31.8439980815       60.7909384479  MEMB      39              0.0000000000
      5250        45  POPC      C34            63.9741250230       30.3036529986       59.2866884128  MEMB      39              0.0000000000
      5251        45  POPC      H4X            63.0929783969       30.8810721257       58.9281522492  MEMB      39              0.0000000000
      5252        45  POPC      H4Y            63.5915097719       29.4868740882       59.9434519728  MEMB      39              0.0000000000
      5253        45  POPC      C35            64.6692488353       29.6782965230       58.0614504226  MEMB      39              0.0000000000
      5254        45  POPC      H5X            64.0195577299       28.8648127086       57.6655078753  MEMB      39              0.0000000000
      5255        45  POPC      H5Y            65.6257804659       29.2075118062       58.3794858436  MEMB      39              0.0000000000
      5256        45  POPC      C36            64.9108511509       30.6408074446       56.8867643042  MEMB      39              0.0000000000
      5257        45  POPC      H6X            65.5265999235       30.1042161606       56.1281926491  MEMB      39              0.0000000000
      5258        45  POPC      H6Y            65.4918827512       31.5304553736       57.2139008315  MEMB      39              0.0000000000
      5259        45  POPC      C37            63.6160831674       31.0901339453       56.1846557203  MEMB      39              0.0000000000
      5260        45  POPC      H7X            63.1046297429       31.8536668825       56.8124198837  MEMB      39              0.0000000000
      5261        45  POPC      H7Y            62.9360451938       30.2168938450       56.0778778523  MEMB      39              0.0000000000
      5262        45  POPC      C38            63.8973854788       31.6687278818       54.7914995690  MEMB      39              0.0000000000
      5263        45  POPC      H8X            64.3558314038       30.8838250188       54.1517743121  MEMB      39              0.0000000000
      5264        45  POPC      H8Y            64.6618175614       32.4670700747       54.9124897020  MEMB      39              0.0000000000
      5265        45  POPC      C39            62.6767576314       32.2729454910       54.0710964302  MEMB      39              0.0000000000
      5266        45  POPC      H9X            63.0244452572       32.7216145245       53.1136163967  MEMB      39              0.0000000000
      5267        45  POPC      H9Y            62.2759906449       33.1054517390       54.6915542737  MEMB      39              0.0000000000
      5268        45  POPC      C310           61.5352816214       31.2911261981       53.7567355699  MEMB      39              0.0000000000
      5269        45  POPC      H10X           60.7482941146       31.8294432463       53.1807050552  MEMB      39              0.0000000000
      5270        45  POPC      H10Y           61.0779792109       30.9646844746       54.7177775524  MEMB      39              0.0000000000
      5271        45  POPC      C311           61.9507084048       30.0376974236       52.9665439329  MEMB      39              0.0000000000
      5272        45  POPC      H11X           61.0675169490       29.3637538273       52.9098269549  MEMB      39              0.0000000000
      5273        45  POPC      H11Y           62.7305506866       29.4898607099       53.5384980466  MEMB      39              0.0000000000
      5274        45  POPC      C312           62.4588405578       30.3076169006       51.5363687251  MEMB      39              0.0000000000
      5275        45  POPC      H12X           62.5821711213       31.3993466550       51.3688033144  MEMB      39              0.0000000000
      5276        45  POPC      H12Y           61.6873759054       29.9553395835       50.8190249010  MEMB      39              0.0000000000
      5277        45  POPC      C313           63.7947930543       29.6060765049       51.2417713745  MEMB      39              0.0000000000
      5278        45  POPC      H13X           63.6912388653       28.5204814002       51.4647039178  MEMB      39              0.0000000000
      5279        45  POPC      H13Y           64.5662285147       30.0202010935       51.9304364236  MEMB      39              0.0000000000
      5280        45  POPC      C314           64.2960154206       29.7665105306       49.7979005311  MEMB      39              0.0000000000
      5281        45  POPC      H14X           65.2807015321       29.2543124373       49.7151830827  MEMB      39              0.0000000000
      5282        45  POPC      H14Y           64.4528325667       30.8442905828       49.5804719816  MEMB      39              0.0000000000
      5283        45  POPC      C315           63.3477718136       29.1942657326       48.7378241499  MEMB      39              0.0000000000
      5284        45  POPC      H15X           62.4602246267       29.8626188899       48.6584150713  MEMB      39              0.0000000000
      5285        45  POPC      H15Y           62.9891510086       28.1976473731       49.0782269657  MEMB      39              0.0000000000
      5286        45  POPC      C316           63.9890087435       29.0434615498       47.3553912970  MEMB      39              0.0000000000
      5287        45  POPC      H16X           64.4806738444       29.9880354848       47.0433930400  MEMB      39              0.0000000000
      5288        45  POPC      H16Y           63.2261989883       28.7682512549       46.5954955859  MEMB      39              0.0000000000
      5289        45  POPC      H16Z           64.7585369266       28.2450466388       47.3742001680  MEMB      39              0.0000000000
      5290        46  POPC      N              25.6564654146       63.7637304407       65.8336132515  MEMB      40              0.0000000000
      5291        46  POPC      C12            25.7929504391       63.5861852947       64.3280918731  MEMB      40              0.0000000000
      5292        46  POPC      H12A           26.6634600753       64.1340702951       63.9855733311  MEMB      40              0.0000000000
      5293        46  POPC      H12B           24.9143297684       63.9950982552       63.8525730451  MEMB      40              0.0000000000
      5294        46  POPC      C13            25.2915640669       65.1575975083       66.1848875286  MEMB      40              0.0000000000
      5295        46  POPC      H13A           25.2863311610       65.2927143480       67.2586055249  MEMB      40              0.0000000000
      5296        46  POPC      H13B           26.0006888904       65.8663838207       65.7752749966  MEMB      40              0.0000000000
      5297        46  POPC      H13C           24.3034146070       65.4689572613       65.8341825492  MEMB      40              0.0000000000
      5298        46  POPC      C14            24.6436580322       62.7933482665       66.3531994130  MEMB      40              0.0000000000
      5299        46  POPC      H14A           23.6640331838       62.9611216452       65.9167794341  MEMB      40              0.0000000000
      5300        46  POPC      H14B           24.9709158914       61.7957881450       66.0679625685  MEMB      40              0.0000000000
      5301        46  POPC      H14C           24.5586757836       62.8257010681       67.4343599535  MEMB      40              0.0000000000
      5302        46  POPC      C15            26.9977957392       63.4894675177       66.4541130127  MEMB      40              0.0000000000
      5303        46  POPC      H15A           27.7055694697       64.2720256203       66.2081267008  MEMB      40              0.0000000000
      5304        46  POPC      H15B           27.4048273470       62.5628426416       66.0306768478  MEMB      40              0.0000000000
      5305        46  POPC      H15C           26.9327918809       63.3861855306       67.5214371098  MEMB      40              0.0000000000
      5306        46  POPC      C11            25.9905766522       62.1445026257       63.8027187969  MEMB      40              0.0000000000
      5307        46  POPC      H11A           26.1851978928       62.2115750403       62.7025088149  MEMB      40              0.0000000000
      5308        46  POPC      H11B           25.0571818171       61.5496242852       63.9308604282  MEMB      40              0.0000000000
      5309        46  POPC      P              27.7663873605       60.2468487628       63.8407950570  MEMB      40              0.0000000000
      5310        46  POPC      O13            26.6252235938       59.3879619852       63.4421485552  MEMB      40              0.0000000000
      5311        46  POPC      O14            28.7228987364       59.7076681776       64.8347753897  MEMB      40              0.0000000000
      5312        46  POPC      O12            27.0770627290       61.5214352829       64.4876697720  MEMB      40              0.0000000000
      5313        46  POPC      O11            28.4708214026       60.9633142046       62.6243178500  MEMB      40              0.0000000000
      5314        46  POPC      C1             29.1236767233       62.2400665476       62.7354986023  MEMB      40              0.0000000000
      5315        46  POPC      HA             30.1963043149       62.0551702520       62.9837465264  MEMB      40              0.0000000000
      5316        46  POPC      HB             28.7044112311       62.9023146670       63.5233947300  MEMB      40              0.0000000000
      5317        46  POPC      C2             29.0796501996       62.9852854991       61.3679778277  MEMB      40              0.0000000000
      5318        46  POPC      HS             29.9276931557       63.6885555100       61.3114737972  MEMB      40              0.0000000000
      5319        46  POPC      O21            27.8462468079       63.7182285745       61.1943724327  MEMB      40              0.0000000000
      5320        46  POPC      C21            27.8297392298       64.6207302926       60.2024789676  MEMB      40              0.0000000000
      5321        46  POPC      O22            28.5707207731       65.5816253246       60.1209364240  MEMB      40              0.0000000000
      5322        46  POPC      C22            26.7035542398       64.2651311980       59.2286339119  MEMB      40              0.0000000000
      5323        46  POPC      H2R            27.1852672354       64.0056378945       58.2653709899  MEMB      40              0.0000000000
      5324        46  POPC      H2S            26.0719545825       65.1581916508       59.0613576260  MEMB      40              0.0000000000
      5325        46  POPC      C3             29.2762555432       61.8857350800       60.2903124070  MEMB      40              0.0000000000
      5326        46  POPC      HX             28.3799790651       61.2235387084       60.2829806524  MEMB      40              0.0000000000
      5327        46  POPC      HY             30.1403582480       61.2677193496       60.6551279246  MEMB      40              0.0000000000
      5328        46  POPC      O31            29.5403263345       62.4228838934       58.9775689457  MEMB      40              0.0000000000
      5329        46  POPC      C31            29.8629262324       61.4063125478       58.1625243358  MEMB      40              0.0000000000
      5330        46  POPC      O32            29.8050029966       60.2303862237       58.4640469112  MEMB      40              0.0000000000
      5331        46  POPC      C32            30.4461069093       61.9350080494       56.8465854587  MEMB      40              0.0000000000
      5332        46  POPC      H2X            31.2887242453       61.2477018178       56.6094394026  MEMB      40              0.0000000000
      5333        46  POPC      H2Y            30.8558640845       62.9510058492       57.0071383423  MEMB      40              0.0000000000
      5334        46  POPC      C23            25.8626051976       63.0606849642       59.7281605881  MEMB      40              0.0000000000
      5335        46  POPC      H3R            25.3693086352       63.3265229242       60.6826548183  MEMB      40              0.0000000000
      5336        46  POPC      H3S            26.5253709616       62.2074585367       59.9707008552  MEMB      40              0.0000000000
      5337        46  POPC      C24            24.7921192726       62.5772216521       58.7473841047  MEMB      40              0.0000000000
      5338        46  POPC      H4R            24.3234647196       63.4587162340       58.2546116151  MEMB      40              0.0000000000
      5339        46  POPC      H4S            24.0011235086       62.0436689497       59.3246942998  MEMB      40              0.0000000000
      5340        46  POPC      C25            25.3316752568       61.6190620050       57.6811452164  MEMB      40              0.0000000000
      5341        46  POPC      H5R            26.1397899972       62.1318675315       57.1188722162  MEMB      40              0.0000000000
      5342        46  POPC      H5S            24.5085019105       61.4111857777       56.9597721314  MEMB      40              0.0000000000
      5343        46  POPC      C26            25.8649206466       60.2776808996       58.2234008794  MEMB      40              0.0000000000
      5344        46  POPC      H6R            25.0040007665       59.6548731473       58.5482578917  MEMB      40              0.0000000000
      5345        46  POPC      H6S            26.5216705078       60.4156474183       59.1065130294  MEMB      40              0.0000000000
      5346        46  POPC      C27            26.6920993147       59.5015549191       57.1888471131  MEMB      40              0.0000000000
      5347        46  POPC      H7R            26.9788064375       58.5142283804       57.6167649857  MEMB      40              0.0000000000
      5348        46  POPC      H7S            27.6327275902       60.0660255425       57.0077197735  MEMB      40              0.0000000000
      5349        46  POPC      C28            25.9497701311       59.3498265035       55.8596301309  MEMB      40              0.0000000000
      5350        46  POPC      H8R            25.6815849273       60.3648642743       55.5026836399  MEMB      40              0.0000000000
      5351        46  POPC      H8S            24.9970954186       58.8116414909       56.0377561269  MEMB      40              0.0000000000
      5352        46  POPC      C29            26.7642394203       58.6310280280       54.8265259892  MEMB      40              0.0000000000
      5353        46  POPC      H91            27.4427553842       57.8502992774       55.2042531392  MEMB      40              0.0000000000
      5354        46  POPC      C210           26.6955131783       58.8721196743       53.5110814008  MEMB      40              0.0000000000
      5355        46  POPC      H101           27.3224758468       58.2760651095       52.8312510819  MEMB      40              0.0000000000
      5356        46  POPC      C211           25.8058139653       59.8908984126       52.8449949835  MEMB      40              0.0000000000
      5357        46  POPC      H11R           26.4418580841       60.4892299607       52.1721441446  MEMB      40              0.0000000000
      5358        46  POPC      H11S           25.3581541989       60.6257000144       53.5478442113  MEMB      40              0.0000000000
      5359        46  POPC      C212           24.6543606662       59.2564691188       52.0466404842  MEMB      40              0.0000000000
      5360        46  POPC      H12R           23.9381308297       58.7840189859       52.7568429710  MEMB      40              0.0000000000
      5361        46  POPC      H12S           25.0499266452       58.4440245490       51.3974004191  MEMB      40              0.0000000000
      5362        46  POPC      C213           23.8947113668       60.2744758371       51.1733443960  MEMB      40              0.0000000000
      5363        46  POPC      H13R           23.3130578891       60.9494665122       51.8419880909  MEMB      40              0.0000000000
      5364        46  POPC      H13S           23.1677177325       59.7215669145       50.5408510931  MEMB      40              0.0000000000
      5365        46  POPC      C214           24.7865921199       61.1525614368       50.2746758505  MEMB      40              0.0000000000
      5366        46  POPC      H14R           25.3930609339       61.8188402199       50.9276612644  MEMB      40              0.0000000000
      5367        46  POPC      H14S           24.1477870383       61.8196944696       49.6544744998  MEMB      40              0.0000000000
      5368        46  POPC      C215           25.7326838433       60.3651738585       49.3526523249  MEMB      40              0.0000000000
      5369        46  POPC      H15R           25.1971285452       60.1702463860       48.3960880106  MEMB      40              0.0000000000
      5370        46  POPC      H15S           25.9766464921       59.3769864685       49.7806226461  MEMB      40              0.0000000000
      5371        46  POPC      C216           27.0428705387       61.1148910216       49.0613665514  MEMB      40              0.0000000000
      5372        46  POPC      H16R           26.7676639727       62.1737052458       48.8777786645  MEMB      40              0.0000000000
      5373        46  POPC      H16S           27.4861399190       60.7207799374       48.1240277231  MEMB      40              0.0000000000
      5374        46  POPC      C217           28.1218634965       61.0961036839       50.1671722575  MEMB      40              0.0000000000
      5375        46  POPC      H17R           27.7422553279       61.6850862035       51.0314949080  MEMB      40              0.0000000000
      5376        46  POPC      H17S           29.0140644909       61.6368021437       49.7839574367  MEMB      40              0.0000000000
      5377        46  POPC      C218           28.6115579314       59.7316526819       50.6648626548  MEMB      40              0.0000000000
      5378        46  POPC      H18R           27.7652085646       59.0475609146       50.8695194479  MEMB      40              0.0000000000
      5379        46  POPC      H18S           29.1965754750       59.8580150240       51.6014019181  MEMB      40              0.0000000000
      5380        46  POPC      H18T           29.2712922348       59.2509214462       49.9168171403  MEMB      40              0.0000000000
      5381        46  POPC      C33            29.4928814625       61.9553099572       55.6270020165  MEMB      40              0.0000000000
      5382        46  POPC      H3X            28.9014348148       61.0204336810       55.5320844227  MEMB      40              0.0000000000
      5383        46  POPC      H3Y            30.1344009947       62.0192986243       54.7139155269  MEMB      40              0.0000000000
      5384        46  POPC      C34            28.5861693725       63.1907069115       55.6061568629  MEMB      40              0.0000000000
      5385        46  POPC      H4X            29.2047731455       64.0895735364       55.8221712853  MEMB      40              0.0000000000
      5386        46  POPC      H4Y            27.8277285220       63.1132100744       56.4090352212  MEMB      40              0.0000000000
      5387        46  POPC      C35            27.8848377612       63.3741247618       54.2536184977  MEMB      40              0.0000000000
      5388        46  POPC      H5X            27.2520047730       62.4780836399       54.0565656703  MEMB      40              0.0000000000
      5389        46  POPC      H5Y            28.6557318677       63.4039250117       53.4553202693  MEMB      40              0.0000000000
      5390        46  POPC      C36            27.0007798788       64.6311519479       54.1587695043  MEMB      40              0.0000000000
      5391        46  POPC      H6X            26.1433388976       64.5077074700       54.8604960916  MEMB      40              0.0000000000
      5392        46  POPC      H6Y            26.5631176989       64.6812060949       53.1378754818  MEMB      40              0.0000000000
      5393        46  POPC      C37            27.6801382044       65.9796360511       54.4899513439  MEMB      40              0.0000000000
      5394        46  POPC      H7X            27.7641475143       66.0346764620       55.6002099254  MEMB      40              0.0000000000
      5395        46  POPC      H7Y            27.0000703056       66.8039347892       54.1799851455  MEMB      40              0.0000000000
      5396        46  POPC      C38            29.0920261491       66.2585688970       53.9258576084  MEMB      40              0.0000000000
      5397        46  POPC      H8X            29.7942133511       65.4431073750       54.1969129797  MEMB      40              0.0000000000
      5398        46  POPC      H8Y            29.4549024138       67.1786544852       54.4451797716  MEMB      40              0.0000000000
      5399        46  POPC      C39            29.1914586490       66.5305198976       52.4138196331  MEMB      40              0.0000000000
      5400        46  POPC      H9X            30.1975968987       66.9634664775       52.2059471487  MEMB      40              0.0000000000
      5401        46  POPC      H9Y            28.4376649435       67.2908023782       52.1180786497  MEMB      40              0.0000000000
      5402        46  POPC      C310           29.0374748825       65.2682846750       51.5599612138  MEMB      40              0.0000000000
      5403        46  POPC      H10X           28.0065285929       64.8789985943       51.6931542274  MEMB      40              0.0000000000
      5404        46  POPC      H10Y           29.7444109118       64.4824845458       51.9053295676  MEMB      40              0.0000000000
      5405        46  POPC      C311           29.2462610461       65.5027843158       50.0667504469  MEMB      40              0.0000000000
      5406        46  POPC      H11X           30.3139532391       65.6844390483       49.8364710539  MEMB      40              0.0000000000
      5407        46  POPC      H11Y           28.7104316818       66.4267630954       49.7754953174  MEMB      40              0.0000000000
      5408        46  POPC      C312           28.7062196357       64.3318602065       49.2394685844  MEMB      40              0.0000000000
      5409        46  POPC      H12X           27.8190960356       63.8980100391       49.7520989035  MEMB      40              0.0000000000
      5410        46  POPC      H12Y           29.4768135242       63.5447206186       49.1550617050  MEMB      40              0.0000000000
      5411        46  POPC      C313           28.2807665859       64.7751831023       47.8498416486  MEMB      40              0.0000000000
      5412        46  POPC      H13X           29.1064933246       65.3654543552       47.3965715524  MEMB      40              0.0000000000
      5413        46  POPC      H13Y           27.3936698097       65.4280496086       47.9850257522  MEMB      40              0.0000000000
      5414        46  POPC      C314           27.8855352574       63.6540743226       46.8899959024  MEMB      40              0.0000000000
      5415        46  POPC      H14X           26.8822222977       63.2655231549       47.1724673631  MEMB      40              0.0000000000
      5416        46  POPC      H14Y           28.6185821093       62.8184885568       46.9328135280  MEMB      40              0.0000000000
      5417        46  POPC      C315           27.7845355786       64.1850164494       45.4646155578  MEMB      40              0.0000000000
      5418        46  POPC      H15X           27.2931001696       63.4150487916       44.8310442258  MEMB      40              0.0000000000
      5419        46  POPC      H15Y           28.8205785978       64.3313435618       45.0814059450  MEMB      40              0.0000000000
      5420        46  POPC      C316           27.0232375130       65.5142978599       45.3751111956  MEMB      40              0.0000000000
      5421        46  POPC      H16X           27.6307993007       66.3368099017       45.8019488315  MEMB      40              0.0000000000
      5422        46  POPC      H16Y           26.0591982835       65.4582307203       45.9239293534  MEMB      40              0.0000000000
      5423        46  POPC      H16Z           26.8060983181       65.7911670548       44.3270277994  MEMB      40              0.0000000000
      5424        47  POPC      N              54.4611869200        8.8996635537       64.6441885821  MEMB      41              0.0000000000
      5425        47  POPC      C12            53.4300883876        9.7698124821       63.9462805338  MEMB      41              0.0000000000
      5426        47  POPC      H12A           52.4935913159        9.7242868984       64.4951689103  MEMB      41              0.0000000000
      5427        47  POPC      H12B           53.2770959055        9.3724200993       62.9556842424  MEMB      41              0.0000000000
      5428        47  POPC      C13            54.3750389271        9.1016348925       66.1123992632  MEMB      41              0.0000000000
      5429        47  POPC      H13A           55.2462455481        8.6997143061       66.6162228120  MEMB      41              0.0000000000
      5430        47  POPC      H13B           54.3480667658       10.1711314900       66.3422311222  MEMB      41              0.0000000000
      5431        47  POPC      H13C           53.4831535345        8.6505718584       66.5062846345  MEMB      41              0.0000000000
      5432        47  POPC      C14            54.3138212507        7.4322788880       64.4090270380  MEMB      41              0.0000000000
      5433        47  POPC      H14A           53.3648582201        7.0625564624       64.7644701664  MEMB      41              0.0000000000
      5434        47  POPC      H14B           54.4481737068        7.1836952689       63.3618762313  MEMB      41              0.0000000000
      5435        47  POPC      H14C           55.1060217285        6.8976888902       64.9389093987  MEMB      41              0.0000000000
      5436        47  POPC      C15            55.8154064376        9.3402718160       64.2080196100  MEMB      41              0.0000000000
      5437        47  POPC      H15A           56.0273904736        9.1257125522       63.1687314554  MEMB      41              0.0000000000
      5438        47  POPC      H15B           56.6139645389        8.8684110776       64.7856574414  MEMB      41              0.0000000000
      5439        47  POPC      H15C           55.9317183581       10.4111782268       64.3684094684  MEMB      41              0.0000000000
      5440        47  POPC      C11            53.7026294916       11.3001177004       63.7239772275  MEMB      41              0.0000000000
      5441        47  POPC      H11A           52.8347749741       11.7416618231       63.1752319941  MEMB      41              0.0000000000
      5442        47  POPC      H11B           54.5762596242       11.4095679072       63.0447162425  MEMB      41              0.0000000000
      5443        47  POPC      P              52.8008142250       12.3344915349       65.9594827675  MEMB      41              0.0000000000
      5444        47  POPC      O13            52.2773506776       13.7181754680       65.8168661213  MEMB      41              0.0000000000
      5445        47  POPC      O14            53.2453091736       11.8662469966       67.2949630725  MEMB      41              0.0000000000
      5446        47  POPC      O12            53.9555066582       12.0401103493       64.9155691545  MEMB      41              0.0000000000
      5447        47  POPC      O11            51.6766064059       11.3138207337       65.4929246617  MEMB      41              0.0000000000
      5448        47  POPC      C1             50.2802182793       11.5974510530       65.6882984024  MEMB      41              0.0000000000
      5449        47  POPC      HA             50.0970050594       12.5168916057       66.2909356488  MEMB      41              0.0000000000
      5450        47  POPC      HB             49.8491926956       10.7665907395       66.2881770043  MEMB      41              0.0000000000
      5451        47  POPC      C2             49.4084548481       11.6613031205       64.3752247261  MEMB      41              0.0000000000
      5452        47  POPC      HS             48.3807981534       11.3296385677       64.6607917454  MEMB      41              0.0000000000
      5453        47  POPC      O21            49.9126712071       10.8333653211       63.3166759243  MEMB      41              0.0000000000
      5454        47  POPC      C21            50.0531181134        9.5502980122       63.5342349760  MEMB      41              0.0000000000
      5455        47  POPC      O22            49.7028793226        8.9171267822       64.5143682722  MEMB      41              0.0000000000
      5456        47  POPC      C22            50.6932487997        8.9448169543       62.2870532560  MEMB      41              0.0000000000
      5457        47  POPC      H2R            50.6898625570        7.8521587921       62.4212751733  MEMB      41              0.0000000000
      5458        47  POPC      H2S            51.7411443611        9.2642425797       62.2089516255  MEMB      41              0.0000000000
      5459        47  POPC      C3             49.2517253795       13.1188238855       63.8122853357  MEMB      41              0.0000000000
      5460        47  POPC      HX             49.5659679478       13.8136322628       64.6183686603  MEMB      41              0.0000000000
      5461        47  POPC      HY             48.1610909066       13.2969667678       63.6586655540  MEMB      41              0.0000000000
      5462        47  POPC      O31            50.0379667766       13.4079381975       62.6256048155  MEMB      41              0.0000000000
      5463        47  POPC      C31            49.3809881445       13.7286936406       61.5137720497  MEMB      41              0.0000000000
      5464        47  POPC      O32            48.1859708971       13.7062149587       61.3447571241  MEMB      41              0.0000000000
      5465        47  POPC      C32            50.3655383698       14.2356826960       60.4705208056  MEMB      41              0.0000000000
      5466        47  POPC      H2X            50.8783044636       13.3719151137       60.0061921748  MEMB      41              0.0000000000
      5467        47  POPC      H2Y            51.1195636998       14.8573388721       60.9894324273  MEMB      41              0.0000000000
      5468        47  POPC      C23            49.9748098936        9.3825123262       60.9904194037  MEMB      41              0.0000000000
      5469        47  POPC      H3R            48.9218662738        9.6796177804       61.2066174712  MEMB      41              0.0000000000
      5470        47  POPC      H3S            49.9028414387        8.5443977781       60.2662333810  MEMB      41              0.0000000000
      5471        47  POPC      C24            50.7002563732       10.5556882307       60.3176372278  MEMB      41              0.0000000000
      5472        47  POPC      H4R            50.8593131203       11.3634895246       61.0638446420  MEMB      41              0.0000000000
      5473        47  POPC      H4S            50.0219678206       10.9549297901       59.5432713321  MEMB      41              0.0000000000
      5474        47  POPC      C25            52.0354949525       10.2164278551       59.6354522441  MEMB      41              0.0000000000
      5475        47  POPC      H5R            52.8214069551       10.0538768344       60.4061532472  MEMB      41              0.0000000000
      5476        47  POPC      H5S            52.3424116604       11.0942438071       59.0195969658  MEMB      41              0.0000000000
      5477        47  POPC      C26            51.9706530315        8.9826039002       58.7278700639  MEMB      41              0.0000000000
      5478        47  POPC      H6R            51.8545404076        8.0620241486       59.3428920545  MEMB      41              0.0000000000
      5479        47  POPC      H6S            52.9449857923        8.8899427907       58.1974179557  MEMB      41              0.0000000000
      5480        47  POPC      C27            50.8225119419        9.0388086237       57.7045956609  MEMB      41              0.0000000000
      5481        47  POPC      H7R            50.3079796730       10.0220853003       57.7579161955  MEMB      41              0.0000000000
      5482        47  POPC      H7S            50.0650170804        8.2577754975       57.9453498863  MEMB      41              0.0000000000
      5483        47  POPC      C28            51.2880017208        8.8964687315       56.2554930910  MEMB      41              0.0000000000
      5484        47  POPC      H8R            51.9671906448        9.7483833674       56.0351903793  MEMB      41              0.0000000000
      5485        47  POPC      H8S            50.3997307124        9.0063049982       55.5926409725  MEMB      41              0.0000000000
      5486        47  POPC      C29            51.9322497550        7.5586300063       56.0232078068  MEMB      41              0.0000000000
      5487        47  POPC      H91            51.3362018935        6.7008868577       56.3755233295  MEMB      41              0.0000000000
      5488        47  POPC      C210           53.1437003371        7.3285153955       55.4963163398  MEMB      41              0.0000000000
      5489        47  POPC      H101           53.4233837395        6.2834923270       55.3131179734  MEMB      41              0.0000000000
      5490        47  POPC      C211           54.1450218574        8.3473052926       55.0129368493  MEMB      41              0.0000000000
      5491        47  POPC      H11R           55.0256310698        8.3663454492       55.6930029737  MEMB      41              0.0000000000
      5492        47  POPC      H11S           53.7249598246        9.3774203712       55.0007562563  MEMB      41              0.0000000000
      5493        47  POPC      C212           54.6371010415        8.0365494303       53.5890577837  MEMB      41              0.0000000000
      5494        47  POPC      H12R           55.2165097994        7.0867270104       53.5717236220  MEMB      41              0.0000000000
      5495        47  POPC      H12S           55.3236499349        8.8542039081       53.2854194535  MEMB      41              0.0000000000
      5496        47  POPC      C213           53.4921067546        7.9463474255       52.5780395373  MEMB      41              0.0000000000
      5497        47  POPC      H13R           52.7347624470        8.7259979257       52.8155183473  MEMB      41              0.0000000000
      5498        47  POPC      H13S           53.0018162582        6.9570167734       52.7020008986  MEMB      41              0.0000000000
      5499        47  POPC      C214           53.9233421849        8.0960905278       51.1149525333  MEMB      41              0.0000000000
      5500        47  POPC      H14R           53.0768201876        7.7817279710       50.4723768509  MEMB      41              0.0000000000
      5501        47  POPC      H14S           54.7683622444        7.4157468183       50.8877632160  MEMB      41              0.0000000000
      5502        47  POPC      C215           54.2431071334        9.5410224050       50.7229372923  MEMB      41              0.0000000000
      5503        47  POPC      H15R           55.2132533666        9.8556498959       51.1616675661  MEMB      41              0.0000000000
      5504        47  POPC      H15S           53.4522356201       10.2027824316       51.1349237369  MEMB      41              0.0000000000
      5505        47  POPC      C216           54.2438219514        9.7457023790       49.2070797999  MEMB      41              0.0000000000
      5506        47  POPC      H16R           53.1985120903        9.6483475672       48.8330879723  MEMB      41              0.0000000000
      5507        47  POPC      H16S           54.8451043399        8.9491704425       48.7174646107  MEMB      41              0.0000000000
      5508        47  POPC      C217           54.8006347422       11.1136021983       48.8133693517  MEMB      41              0.0000000000
      5509        47  POPC      H17R           55.8929909345       11.1162152807       49.0290526794  MEMB      41              0.0000000000
      5510        47  POPC      H17S           54.3308801914       11.9018717981       49.4462300276  MEMB      41              0.0000000000
      5511        47  POPC      C218           54.5504543606       11.4434516946       47.3462475837  MEMB      41              0.0000000000
      5512        47  POPC      H18R           55.1092150592       12.3477443165       47.0304063704  MEMB      41              0.0000000000
      5513        47  POPC      H18S           53.4703903256       11.6347128748       47.1844733812  MEMB      41              0.0000000000
      5514        47  POPC      H18T           54.8513376355       10.5967793147       46.6933446821  MEMB      41              0.0000000000
      5515        47  POPC      C33            49.6498668297       15.0792333744       59.3983022424  MEMB      41              0.0000000000
      5516        47  POPC      H3X            48.9396803301       15.8050216198       59.8589467187  MEMB      41              0.0000000000
      5517        47  POPC      H3Y            49.0374671996       14.4066932552       58.7604708933  MEMB      41              0.0000000000
      5518        47  POPC      C34            50.6643223986       15.8639391896       58.5680055192  MEMB      41              0.0000000000
      5519        47  POPC      H4X            51.6094243255       15.2795870660       58.5096649808  MEMB      41              0.0000000000
      5520        47  POPC      H4Y            50.8910142071       16.8148883292       59.0990584069  MEMB      41              0.0000000000
      5521        47  POPC      C35            50.1829717664       16.1657482854       57.1519369567  MEMB      41              0.0000000000
      5522        47  POPC      H5X            50.8670147277       16.9033990561       56.6750404268  MEMB      41              0.0000000000
      5523        47  POPC      H5Y            49.1712349282       16.6275506977       57.2018495372  MEMB      41              0.0000000000
      5524        47  POPC      C36            50.1394682263       14.9145098626       56.2713174886  MEMB      41              0.0000000000
      5525        47  POPC      H6X            49.7229711490       15.2195452442       55.2923086398  MEMB      41              0.0000000000
      5526        47  POPC      H6Y            49.4452513926       14.1496830552       56.6848039093  MEMB      41              0.0000000000
      5527        47  POPC      C37            51.5151858103       14.2871309647       56.0161650672  MEMB      41              0.0000000000
      5528        47  POPC      H7X            51.6001257885       13.3652552715       56.6351712015  MEMB      41              0.0000000000
      5529        47  POPC      H7Y            52.3301995377       14.9766101933       56.3277824944  MEMB      41              0.0000000000
      5530        47  POPC      C38            51.6907219414       13.9414594241       54.5330264528  MEMB      41              0.0000000000
      5531        47  POPC      H8X            52.0491358145       14.8293981028       53.9686194353  MEMB      41              0.0000000000
      5532        47  POPC      H8Y            50.6838123451       13.6963268196       54.1291456836  MEMB      41              0.0000000000
      5533        47  POPC      C39            52.6121513870       12.7416182043       54.2977457822  MEMB      41              0.0000000000
      5534        47  POPC      H9X            52.5470055830       12.0445717545       55.1647182607  MEMB      41              0.0000000000
      5535        47  POPC      H9Y            53.6654058043       13.0927322986       54.2320128733  MEMB      41              0.0000000000
      5536        47  POPC      C310           52.2365931211       11.9457533234       53.0391945217  MEMB      41              0.0000000000
      5537        47  POPC      H10X           53.0633956089       11.2290145809       52.8463526561  MEMB      41              0.0000000000
      5538        47  POPC      H10Y           52.1715515854       12.6390316614       52.1735810075  MEMB      41              0.0000000000
      5539        47  POPC      C311           50.9320086717       11.1457864833       53.2130798062  MEMB      41              0.0000000000
      5540        47  POPC      H11X           50.1148751745       11.8122958157       53.5646659150  MEMB      41              0.0000000000
      5541        47  POPC      H11Y           51.0926724326       10.3851518206       54.0057423215  MEMB      41              0.0000000000
      5542        47  POPC      C312           50.4255158073       10.4338490470       51.9516234852  MEMB      41              0.0000000000
      5543        47  POPC      H12X           49.4940538534        9.8859738197       52.2209175392  MEMB      41              0.0000000000
      5544        47  POPC      H12Y           51.1622239104        9.6780726308       51.6047851060  MEMB      41              0.0000000000
      5545        47  POPC      C313           50.1109388262       11.3941602753       50.8032504976  MEMB      41              0.0000000000
      5546        47  POPC      H13X           51.0647069594       11.7307009569       50.3375810715  MEMB      41              0.0000000000
      5547        47  POPC      H13Y           49.5897786691       12.2954994654       51.1982471590  MEMB      41              0.0000000000
      5548        47  POPC      C314           49.2283485198       10.7465954128       49.7331119622  MEMB      41              0.0000000000
      5549        47  POPC      H14X           48.2149271124       10.5573208629       50.1503135669  MEMB      41              0.0000000000
      5550        47  POPC      H14Y           49.6564348426        9.7573713201       49.4519265006  MEMB      41              0.0000000000
      5551        47  POPC      C315           49.1254319489       11.6221797477       48.4837622816  MEMB      41              0.0000000000
      5552        47  POPC      H15X           50.1147257107       11.6106340442       47.9790834595  MEMB      41              0.0000000000
      5553        47  POPC      H15Y           48.9227955277       12.6764626859       48.7814069576  MEMB      41              0.0000000000
      5554        47  POPC      C316           48.0413881776       11.1589265879       47.5169961780  MEMB      41              0.0000000000
      5555        47  POPC      H16X           47.0444860259       11.4243315023       47.9240984315  MEMB      41              0.0000000000
      5556        47  POPC      H16Y           48.0709845548       10.0581815222       47.3868086008  MEMB      41              0.0000000000
      5557        47  POPC      H16Z           48.1531193722       11.6444371558       46.5257205379  MEMB      41              0.0000000000
      5558        48  POPC      N               7.8139014006       19.2634238180       63.4231518537  MEMB      42              0.0000000000
      5559        48  POPC      C12             7.4887477839       20.5054077490       64.2430624288  MEMB      42              0.0000000000
      5560        48  POPC      H12A            6.4428822520       20.7978835721       64.0681480682  MEMB      42              0.0000000000
      5561        48  POPC      H12B            8.0758805511       21.3407686636       63.9017742738  MEMB      42              0.0000000000
      5562        48  POPC      C13             9.1894835585       18.7481739093       63.7102524448  MEMB      42              0.0000000000
      5563        48  POPC      H13A            9.3232369968       17.7702578278       63.2488999251  MEMB      42              0.0000000000
      5564        48  POPC      H13B            9.9483498228       19.4127749297       63.3247133883  MEMB      42              0.0000000000
      5565        48  POPC      H13C            9.2925368368       18.6298613955       64.7837145297  MEMB      42              0.0000000000
      5566        48  POPC      C14             6.8446492453       18.1892533237       63.8202300011  MEMB      42              0.0000000000
      5567        48  POPC      H14A            6.8460561029       18.0494773568       64.8999374959  MEMB      42              0.0000000000
      5568        48  POPC      H14B            5.8109739130       18.4801319392       63.6234974779  MEMB      42              0.0000000000
      5569        48  POPC      H14C            7.0247642903       17.2551024419       63.3188284735  MEMB      42              0.0000000000
      5570        48  POPC      C15             7.6655601378       19.5305712386       61.9625225916  MEMB      42              0.0000000000
      5571        48  POPC      H15A            7.7561942397       18.6039737585       61.4068593034  MEMB      42              0.0000000000
      5572        48  POPC      H15B            8.4015305814       20.2282318254       61.5846639625  MEMB      42              0.0000000000
      5573        48  POPC      H15C            6.6847110524       19.9410019879       61.7494791693  MEMB      42              0.0000000000
      5574        48  POPC      C11             7.6359607627       20.3983823580       65.7845896321  MEMB      42              0.0000000000
      5575        48  POPC      H11A            7.5726607438       21.4282912817       66.2209734657  MEMB      42              0.0000000000
      5576        48  POPC      H11B            8.6481419691       20.0209170871       66.0382303218  MEMB      42              0.0000000000
      5577        48  POPC      P               5.1995119608       20.1123811651       66.6227099970  MEMB      42              0.0000000000
      5578        48  POPC      O13             5.3284869789       21.1799009834       67.6474356662  MEMB      42              0.0000000000
      5579        48  POPC      O14             4.2642344629       18.9860192734       66.8905828364  MEMB      42              0.0000000000
      5580        48  POPC      O12             6.6609675850       19.5189973557       66.3580171112  MEMB      42              0.0000000000
      5581        48  POPC      O11             4.9066757987       20.7474368525       65.2067919306  MEMB      42              0.0000000000
      5582        48  POPC      C1              3.5470864467       20.8668735486       64.8589779794  MEMB      42              0.0000000000
      5583        48  POPC      HA              3.0012606706       21.4737276301       65.6234922695  MEMB      42              0.0000000000
      5584        48  POPC      HB              3.0527095564       19.8697879663       64.8132783418  MEMB      42              0.0000000000
      5585        48  POPC      C2              3.3635382595       21.6075843108       63.5201309632  MEMB      42              0.0000000000
      5586        48  POPC      HS              2.2714189985       21.7905389821       63.4667039540  MEMB      42              0.0000000000
      5587        48  POPC      O21             3.7876591516       20.9492889938       62.3050428054  MEMB      42              0.0000000000
      5588        48  POPC      C21             3.9814904818       19.6451144729       62.1829981803  MEMB      42              0.0000000000
      5589        48  POPC      O22             4.0402248872       18.7993569565       63.0460271187  MEMB      42              0.0000000000
      5590        48  POPC      C22             4.1762802418       19.2897005147       60.7148683414  MEMB      42              0.0000000000
      5591        48  POPC      H2R             5.1886145403       18.8390504031       60.6452277857  MEMB      42              0.0000000000
      5592        48  POPC      H2S             4.1286369803       20.2001350767       60.0885626424  MEMB      42              0.0000000000
      5593        48  POPC      C3              4.0710864366       22.9975935412       63.5465973481  MEMB      42              0.0000000000
      5594        48  POPC      HX              3.8533998421       23.4718657052       64.5269903101  MEMB      42              0.0000000000
      5595        48  POPC      HY              3.5494287457       23.5982039425       62.7628726116  MEMB      42              0.0000000000
      5596        48  POPC      O31             5.5126761420       22.9333123821       63.3913182160  MEMB      42              0.0000000000
      5597        48  POPC      C31             6.0060073676       23.8103509157       62.5242142556  MEMB      42              0.0000000000
      5598        48  POPC      O32             5.3563023040       24.5152028807       61.7827766814  MEMB      42              0.0000000000
      5599        48  POPC      C32             7.5042739493       23.6556318888       62.4468563391  MEMB      42              0.0000000000
      5600        48  POPC      H2X             7.8130844889       22.6371263002       62.7306535129  MEMB      42              0.0000000000
      5601        48  POPC      H2Y             7.9389606777       24.3868626866       63.1629021896  MEMB      42              0.0000000000
      5602        48  POPC      C23             3.1449401669       18.2352590320       60.2423933199  MEMB      42              0.0000000000
      5603        48  POPC      H3R             2.1684455916       18.7344856905       60.0438122090  MEMB      42              0.0000000000
      5604        48  POPC      H3S             2.9697384536       17.4567892855       61.0266269678  MEMB      42              0.0000000000
      5605        48  POPC      C24             3.6013853506       17.5001443366       58.9785120542  MEMB      42              0.0000000000
      5606        48  POPC      H4R             2.7376418393       16.9413456841       58.5485045694  MEMB      42              0.0000000000
      5607        48  POPC      H4S             4.3748122897       16.7457855290       59.2544959638  MEMB      42              0.0000000000
      5608        48  POPC      C25             4.1749242507       18.4560542326       57.9271136639  MEMB      42              0.0000000000
      5609        48  POPC      H5R             5.0961245044       18.9447485332       58.3132715881  MEMB      42              0.0000000000
      5610        48  POPC      H5S             3.4334371046       19.2567209667       57.7071383117  MEMB      42              0.0000000000
      5611        48  POPC      C26             4.5327745562       17.7315599708       56.6337153013  MEMB      42              0.0000000000
      5612        48  POPC      H6R             3.6022946341       17.2913030591       56.2085881552  MEMB      42              0.0000000000
      5613        48  POPC      H6S             5.2322713873       16.8960327512       56.8576784809  MEMB      42              0.0000000000
      5614        48  POPC      C27             5.1759334973       18.6828837005       55.6173174112  MEMB      42              0.0000000000
      5615        48  POPC      H7R             6.0092077446       19.2224171359       56.1192708986  MEMB      42              0.0000000000
      5616        48  POPC      H7S             4.4197975269       19.4436891879       55.3158829705  MEMB      42              0.0000000000
      5617        48  POPC      C28             5.7419908761       17.9805726836       54.3733605093  MEMB      42              0.0000000000
      5618        48  POPC      H8R             6.6127729379       17.3579211307       54.6759706113  MEMB      42              0.0000000000
      5619        48  POPC      H8S             6.1240159146       18.7540766733       53.6690982446  MEMB      42              0.0000000000
      5620        48  POPC      C29             4.6931572612       17.1177910526       53.7308608719  MEMB      42              0.0000000000
      5621        48  POPC      H91             4.6785700175       16.0749273447       54.0849260714  MEMB      42              0.0000000000
      5622        48  POPC      C210            3.7685827459       17.5193307848       52.8440585396  MEMB      42              0.0000000000
      5623        48  POPC      H101            3.0307178608       16.7895559861       52.4884454670  MEMB      42              0.0000000000
      5624        48  POPC      C211            3.5760527274       18.9072746057       52.2968706574  MEMB      42              0.0000000000
      5625        48  POPC      H11R            4.2338122613       19.6479744291       52.8059172407  MEMB      42              0.0000000000
      5626        48  POPC      H11S            2.5434971189       19.2462710665       52.5017088028  MEMB      42              0.0000000000
      5627        48  POPC      C212            3.8532160514       18.9915799606       50.7832667864  MEMB      42              0.0000000000
      5628        48  POPC      H12R            4.9490799655       18.8570453929       50.6326793929  MEMB      42              0.0000000000
      5629        48  POPC      H12S            3.5810910587       20.0170158649       50.4505091925  MEMB      42              0.0000000000
      5630        48  POPC      C213            3.1200821435       17.9820610824       49.8782991877  MEMB      42              0.0000000000
      5631        48  POPC      H13R            2.0214632381       18.0564369575       50.0123870626  MEMB      42              0.0000000000
      5632        48  POPC      H13S            3.4240910712       16.9558451028       50.1831621941  MEMB      42              0.0000000000
      5633        48  POPC      C214            3.4626720782       18.1439519889       48.3818147151  MEMB      42              0.0000000000
      5634        48  POPC      H14R            3.1193304897       17.2281061491       47.8488380639  MEMB      42              0.0000000000
      5635        48  POPC      H14S            4.5675572146       18.1985982816       48.2727532840  MEMB      42              0.0000000000
      5636        48  POPC      C215            2.8080270652       19.3545010357       47.6871920241  MEMB      42              0.0000000000
      5637        48  POPC      H15R            2.9389676341       20.2780532863       48.2871184877  MEMB      42              0.0000000000
      5638        48  POPC      H15S            1.7188787842       19.1682224602       47.6180364728  MEMB      42              0.0000000000
      5639        48  POPC      C216            3.3245349312       19.5775036041       46.2552855663  MEMB      42              0.0000000000
      5640        48  POPC      H16R            3.5409733288       18.5857252913       45.8067154221  MEMB      42              0.0000000000
      5641        48  POPC      H16S            4.2809844839       20.1343456424       46.2899280716  MEMB      42              0.0000000000
      5642        48  POPC      C217            2.3499665961       20.3095901531       45.3177088580  MEMB      42              0.0000000000
      5643        48  POPC      H17R            1.5056026508       19.6331981377       45.0688872668  MEMB      42              0.0000000000
      5644        48  POPC      H17S            2.8799957683       20.5203377425       44.3603441558  MEMB      42              0.0000000000
      5645        48  POPC      C218            1.7647655976       21.6067741885       45.8705336579  MEMB      42              0.0000000000
      5646        48  POPC      H18R            2.5671774013       22.3048585120       46.1722887541  MEMB      42              0.0000000000
      5647        48  POPC      H18S            1.1293056453       21.4142480141       46.7589341512  MEMB      42              0.0000000000
      5648        48  POPC      H18T            1.1444829051       22.0966710049       45.0908709437  MEMB      42              0.0000000000
      5649        48  POPC      C33             7.9740157359       23.9689886868       61.0176066403  MEMB      42              0.0000000000
      5650        48  POPC      H3X             9.0599989922       24.1548866116       61.1104073385  MEMB      42              0.0000000000
      5651        48  POPC      H3Y             7.5213145994       24.9140581316       60.6401402436  MEMB      42              0.0000000000
      5652        48  POPC      C34             7.7524287254       22.8362770900       59.9975619514  MEMB      42              0.0000000000
      5653        48  POPC      H4X             8.2109220725       21.8950595535       60.3634252625  MEMB      42              0.0000000000
      5654        48  POPC      H4Y             8.2960854678       23.1285286994       59.0697873037  MEMB      42              0.0000000000
      5655        48  POPC      C35             6.2801717389       22.5965943061       59.6268253954  MEMB      42              0.0000000000
      5656        48  POPC      H5X             5.7563201655       23.5797171641       59.5291870857  MEMB      42              0.0000000000
      5657        48  POPC      H5Y             5.7755327706       22.0328918355       60.4418406876  MEMB      42              0.0000000000
      5658        48  POPC      C36             6.1060105442       21.8484174890       58.3024670234  MEMB      42              0.0000000000
      5659        48  POPC      H6X             5.0766831700       21.4212244504       58.2550405520  MEMB      42              0.0000000000
      5660        48  POPC      H6Y             6.8331948752       21.0100674284       58.2360769298  MEMB      42              0.0000000000
      5661        48  POPC      C37             6.2526234282       22.7878049714       57.1004971562  MEMB      42              0.0000000000
      5662        48  POPC      H7X             7.2381002811       23.2995526613       57.1353014551  MEMB      42              0.0000000000
      5663        48  POPC      H7Y             5.4600831704       23.5702860061       57.1614042553  MEMB      42              0.0000000000
      5664        48  POPC      C38             6.1223914596       22.0604598232       55.7631594458  MEMB      42              0.0000000000
      5665        48  POPC      H8X             5.0910682578       21.6450412308       55.6869781381  MEMB      42              0.0000000000
      5666        48  POPC      H8Y             6.8398377909       21.2101034698       55.7396170162  MEMB      42              0.0000000000
      5667        48  POPC      C39             6.3930101721       22.9727457562       54.5625825309  MEMB      42              0.0000000000
      5668        48  POPC      H9X             7.4604826781       23.2898207623       54.5823016312  MEMB      42              0.0000000000
      5669        48  POPC      H9Y             5.7684484439       23.8882251084       54.6560455722  MEMB      42              0.0000000000
      5670        48  POPC      C310            6.0855364028       22.2758605778       53.2292325626  MEMB      42              0.0000000000
      5671        48  POPC      H10X            5.0188510582       21.9597375100       53.1960195807  MEMB      42              0.0000000000
      5672        48  POPC      H10Y            6.7074006075       21.3524668482       53.1771364115  MEMB      42              0.0000000000
      5673        48  POPC      C311            6.4059509478       23.1606872682       52.0178953222  MEMB      42              0.0000000000
      5674        48  POPC      H11X            7.3839840054       23.6568106253       52.2269861489  MEMB      42              0.0000000000
      5675        48  POPC      H11Y            5.6509537269       23.9664916372       51.8957494460  MEMB      42              0.0000000000
      5676        48  POPC      C312            6.5712811118       22.3599063066       50.7195807582  MEMB      42              0.0000000000
      5677        48  POPC      H12X            6.9404747992       21.3378212407       50.9565095613  MEMB      42              0.0000000000
      5678        48  POPC      H12Y            7.3427990958       22.8699775543       50.1045818600  MEMB      42              0.0000000000
      5679        48  POPC      C313            5.3370086153       22.2765683927       49.8187986911  MEMB      42              0.0000000000
      5680        48  POPC      H13X            5.1566307013       23.2870629903       49.3890970685  MEMB      42              0.0000000000
      5681        48  POPC      H13Y            4.4458701754       22.0087209989       50.4263652883  MEMB      42              0.0000000000
      5682        48  POPC      C314            5.4949679409       21.2605844060       48.6679391441  MEMB      42              0.0000000000
      5683        48  POPC      H14X            4.7291571302       21.4912559819       47.8970005944  MEMB      42              0.0000000000
      5684        48  POPC      H14Y            5.2999239259       20.2428109960       49.0556537253  MEMB      42              0.0000000000
      5685        48  POPC      C315            6.8771321319       21.1967257988       48.0062661471  MEMB      42              0.0000000000
      5686        48  POPC      H15X            7.6577695847       21.0418202640       48.7846778922  MEMB      42              0.0000000000
      5687        48  POPC      H15Y            7.0529322680       22.1765115305       47.5212439877  MEMB      42              0.0000000000
      5688        48  POPC      C316            7.0414970656       20.0810063937       46.9700656691  MEMB      42              0.0000000000
      5689        48  POPC      H16X            6.3931962349       20.2685294032       46.0888245555  MEMB      42              0.0000000000
      5690        48  POPC      H16Y            6.7640341874       19.0993908091       47.4091397291  MEMB      42              0.0000000000
      5691        48  POPC      H16Z            8.0960785673       20.0269585207       46.6225811749  MEMB      42              0.0000000000
      5692        49  POPC      N              61.0810551531       16.3560562581       65.7414696245  MEMB      43              0.0000000000
      5693        49  POPC      C12            60.0236861779       15.4487473113       65.1217194313  MEMB      43              0.0000000000
      5694        49  POPC      H12A           60.0303594014       14.4773532014       65.6095574538  MEMB      43              0.0000000000
      5695        49  POPC      H12B           60.2584230958       15.3002310385       64.0809237855  MEMB      43              0.0000000000
      5696        49  POPC      C13            60.7464171654       16.5092682799       67.1965094746  MEMB      43              0.0000000000
      5697        49  POPC      H13A           59.7232446462       16.8665605861       67.2884442393  MEMB      43              0.0000000000
      5698        49  POPC      H13B           60.8251916066       15.5576531801       67.7168305062  MEMB      43              0.0000000000
      5699        49  POPC      H13C           61.3832065216       17.2451365311       67.6659132034  MEMB      43              0.0000000000
      5700        49  POPC      C14            62.4644328525       15.8413634552       65.5695448829  MEMB      43              0.0000000000
      5701        49  POPC      H14A           63.1885553720       16.6058397869       65.8318680334  MEMB      43              0.0000000000
      5702        49  POPC      H14B           62.6330908806       14.9832890789       66.2209078253  MEMB      43              0.0000000000
      5703        49  POPC      H14C           62.6737995442       15.5318389202       64.5523457929  MEMB      43              0.0000000000
      5704        49  POPC      C15            61.0365349270       17.7468754915       65.1673899697  MEMB      43              0.0000000000
      5705        49  POPC      H15A           61.1744263448       17.7385711461       64.1007646806  MEMB      43              0.0000000000
      5706        49  POPC      H15B           61.7430423055       18.4273208519       65.6245083262  MEMB      43              0.0000000000
      5707        49  POPC      H15C           60.0243796597       18.1479315337       65.2937360890  MEMB      43              0.0000000000
      5708        49  POPC      C11            58.5690464607       15.9719376563       65.1333501846  MEMB      43              0.0000000000
      5709        49  POPC      H11A           58.2349743491       16.1940992242       66.1707856593  MEMB      43              0.0000000000
      5710        49  POPC      H11B           57.8894607745       15.1931453105       64.7129944152  MEMB      43              0.0000000000
      5711        49  POPC      P              57.2862793660       18.0075011162       64.0175501359  MEMB      43              0.0000000000
      5712        49  POPC      O13            57.7953363352       19.3931620436       64.0140425173  MEMB      43              0.0000000000
      5713        49  POPC      O14            56.2334635801       17.6505457467       64.9882939764  MEMB      43              0.0000000000
      5714        49  POPC      O12            58.5384171198       17.1281671576       64.3297254107  MEMB      43              0.0000000000
      5715        49  POPC      O11            56.9669125063       17.4902319208       62.5493533149  MEMB      43              0.0000000000
      5716        49  POPC      C1             57.9546767154       16.8032730182       61.7619582459  MEMB      43              0.0000000000
      5717        49  POPC      HA             57.4684990532       16.4018427979       60.8458591852  MEMB      43              0.0000000000
      5718        49  POPC      HB             58.3731243502       15.9310165994       62.3090348553  MEMB      43              0.0000000000
      5719        49  POPC      C2             59.0990956955       17.7513115529       61.3165927757  MEMB      43              0.0000000000
      5720        49  POPC      HS             59.4740945078       18.2410605231       62.2481808574  MEMB      43              0.0000000000
      5721        49  POPC      O21            58.5415326113       18.6953876222       60.3926151696  MEMB      43              0.0000000000
      5722        49  POPC      C21            59.0518404032       19.8951234589       60.4844902675  MEMB      43              0.0000000000
      5723        49  POPC      O22            59.9539130798       20.2539575545       61.2210555445  MEMB      43              0.0000000000
      5724        49  POPC      C22            58.4698897151       20.7490955313       59.3696123324  MEMB      43              0.0000000000
      5725        49  POPC      H2R            58.4290793900       21.7635154817       59.8016587226  MEMB      43              0.0000000000
      5726        49  POPC      H2S            57.4356767160       20.4175468277       59.1486547275  MEMB      43              0.0000000000
      5727        49  POPC      C3             60.3349527469       17.0443726770       60.6712350006  MEMB      43              0.0000000000
      5728        49  POPC      HX             60.6497941875       16.2279756136       61.3548523846  MEMB      43              0.0000000000
      5729        49  POPC      HY             61.1478901056       17.8116520688       60.6676297624  MEMB      43              0.0000000000
      5730        49  POPC      O31            60.0603640238       16.4969203740       59.3570101695  MEMB      43              0.0000000000
      5731        49  POPC      C31            61.0158837434       16.6904759519       58.4320046045  MEMB      43              0.0000000000
      5732        49  POPC      O32            62.0964950776       17.2072906503       58.6398308180  MEMB      43              0.0000000000
      5733        49  POPC      C32            60.5408187869       16.1273461654       57.0860415855  MEMB      43              0.0000000000
      5734        49  POPC      H2X            59.6610708043       16.7072738981       56.7548476196  MEMB      43              0.0000000000
      5735        49  POPC      H2Y            60.1972457252       15.0925777301       57.2944543531  MEMB      43              0.0000000000
      5736        49  POPC      C23            59.3659401063       20.6993944966       58.1051090799  MEMB      43              0.0000000000
      5737        49  POPC      H3R            60.4386993972       20.6184101585       58.4006227354  MEMB      43              0.0000000000
      5738        49  POPC      H3S            59.2620606000       21.6342240341       57.5144124144  MEMB      43              0.0000000000
      5739        49  POPC      C24            58.9920220904       19.5428865045       57.1703309498  MEMB      43              0.0000000000
      5740        49  POPC      H4R            58.7387464776       18.6512344935       57.7876941768  MEMB      43              0.0000000000
      5741        49  POPC      H4S            59.8725650188       19.2810445813       56.5443783189  MEMB      43              0.0000000000
      5742        49  POPC      C25            57.8175546372       19.8853658923       56.2392829180  MEMB      43              0.0000000000
      5743        49  POPC      H5R            58.1842455221       20.4339175028       55.3434978943  MEMB      43              0.0000000000
      5744        49  POPC      H5S            57.1231802957       20.5648502207       56.7865749867  MEMB      43              0.0000000000
      5745        49  POPC      C26            57.0073837671       18.6526533767       55.8181070083  MEMB      43              0.0000000000
      5746        49  POPC      H6R            56.0468671783       18.9851664026       55.3653492845  MEMB      43              0.0000000000
      5747        49  POPC      H6S            56.7601462968       18.0757634309       56.7394972457  MEMB      43              0.0000000000
      5748        49  POPC      C27            57.7068125374       17.7241027116       54.8122503484  MEMB      43              0.0000000000
      5749        49  POPC      H7R            58.7912830994       17.7030529445       55.0344064623  MEMB      43              0.0000000000
      5750        49  POPC      H7S            57.5945972629       18.1309061989       53.7815817827  MEMB      43              0.0000000000
      5751        49  POPC      C28            57.1829760058       16.2780872979       54.8911970699  MEMB      43              0.0000000000
      5752        49  POPC      H8R            57.3011503655       15.9118231269       55.9351918419  MEMB      43              0.0000000000
      5753        49  POPC      H8S            57.8240187890       15.6330484104       54.2495283611  MEMB      43              0.0000000000
      5754        49  POPC      C29            55.7340813336       16.2314692125       54.4771480376  MEMB      43              0.0000000000
      5755        49  POPC      H91            55.0553425842       16.8455305602       55.0909671164  MEMB      43              0.0000000000
      5756        49  POPC      C210           55.2177755905       15.5334855098       53.4526442811  MEMB      43              0.0000000000
      5757        49  POPC      H101           54.1395691757       15.6125900395       53.2493922437  MEMB      43              0.0000000000
      5758        49  POPC      C211           55.9866420433       14.6486216095       52.5101114683  MEMB      43              0.0000000000
      5759        49  POPC      H11R           55.2699241196       14.0181566393       51.9374606499  MEMB      43              0.0000000000
      5760        49  POPC      H11S           56.6171628469       13.9548085572       53.1019763014  MEMB      43              0.0000000000
      5761        49  POPC      C212           56.8887564753       15.3813440730       51.4960035270  MEMB      43              0.0000000000
      5762        49  POPC      H12R           57.7173232313       15.9083345471       52.0193092022  MEMB      43              0.0000000000
      5763        49  POPC      H12S           56.2943553540       16.1499133268       50.9563293830  MEMB      43              0.0000000000
      5764        49  POPC      C213           57.4679785436       14.4055937098       50.4628044036  MEMB      43              0.0000000000
      5765        49  POPC      H13R           56.6204835813       13.8085908380       50.0549435001  MEMB      43              0.0000000000
      5766        49  POPC      H13S           58.1663831821       13.7004330003       50.9643530225  MEMB      43              0.0000000000
      5767        49  POPC      C214           58.1914656791       15.1023173300       49.3013963482  MEMB      43              0.0000000000
      5768        49  POPC      H14R           58.9948260792       15.7575155375       49.7073266847  MEMB      43              0.0000000000
      5769        49  POPC      H14S           57.4596517950       15.7555453926       48.7723549931  MEMB      43              0.0000000000
      5770        49  POPC      C215           58.7991526329       14.1217517705       48.2804249171  MEMB      43              0.0000000000
      5771        49  POPC      H15R           59.6774486109       13.6160345021       48.7387429918  MEMB      43              0.0000000000
      5772        49  POPC      H15S           59.1691449514       14.7035185240       47.4071762405  MEMB      43              0.0000000000
      5773        49  POPC      C216           57.8062335732       13.0455075784       47.8005364439  MEMB      43              0.0000000000
      5774        49  POPC      H16R           56.8341567423       13.5338114783       47.5695272623  MEMB      43              0.0000000000
      5775        49  POPC      H16S           57.6382539327       12.3370840650       48.6414753047  MEMB      43              0.0000000000
      5776        49  POPC      C217           58.2770652018       12.2510697595       46.5702684020  MEMB      43              0.0000000000
      5777        49  POPC      H17R           59.3583046531       12.4604841199       46.4159081580  MEMB      43              0.0000000000
      5778        49  POPC      H17S           57.7516373257       12.6271990482       45.6657289365  MEMB      43              0.0000000000
      5779        49  POPC      C218           58.0607395496       10.7363340481       46.6599773409  MEMB      43              0.0000000000
      5780        49  POPC      H18R           58.6773459677       10.2140616739       45.8967833678  MEMB      43              0.0000000000
      5781        49  POPC      H18S           56.9979185798       10.4775251028       46.4818102788  MEMB      43              0.0000000000
      5782        49  POPC      H18T           58.3487424365       10.3523178897       47.6624401946  MEMB      43              0.0000000000
      5783        49  POPC      C33            61.6156861888       16.0748521099       55.9582164695  MEMB      43              0.0000000000
      5784        49  POPC      H3X            61.2759493290       15.2962019598       55.2383023859  MEMB      43              0.0000000000
      5785        49  POPC      H3Y            62.6035406132       15.7448646942       56.3445454925  MEMB      43              0.0000000000
      5786        49  POPC      C34            61.7595953651       17.3524500770       55.1132741948  MEMB      43              0.0000000000
      5787        49  POPC      H4X            62.5732747277       17.9859470797       55.5302462464  MEMB      43              0.0000000000
      5788        49  POPC      H4Y            60.8236037499       17.9393134622       55.1722757789  MEMB      43              0.0000000000
      5789        49  POPC      C35            62.0250570303       17.0446580972       53.6248585749  MEMB      43              0.0000000000
      5790        49  POPC      H5X            61.2127158994       16.3983211606       53.2231399302  MEMB      43              0.0000000000
      5791        49  POPC      H5Y            62.9774085550       16.4721781312       53.5560358872  MEMB      43              0.0000000000
      5792        49  POPC      C36            62.1444390059       18.2931951420       52.7333784322  MEMB      43              0.0000000000
      5793        49  POPC      H6X            62.5917456609       17.9973275750       51.7580719967  MEMB      43              0.0000000000
      5794        49  POPC      H6Y            62.8431502266       19.0028270485       53.2266946294  MEMB      43              0.0000000000
      5795        49  POPC      C37            60.8114511011       19.0057979428       52.4462759972  MEMB      43              0.0000000000
      5796        49  POPC      H7X            60.3106376705       19.2095094950       53.4193499078  MEMB      43              0.0000000000
      5797        49  POPC      H7Y            60.1394790657       18.3393378467       51.8624414829  MEMB      43              0.0000000000
      5798        49  POPC      C38            60.9920908584       20.3528614019       51.7200051071  MEMB      43              0.0000000000
      5799        49  POPC      H8X            62.0563829047       20.6723876548       51.7872256411  MEMB      43              0.0000000000
      5800        49  POPC      H8Y            60.3865196031       21.1173537566       52.2597548740  MEMB      43              0.0000000000
      5801        49  POPC      C39            60.5521405597       20.3770341335       50.2438882809  MEMB      43              0.0000000000
      5802        49  POPC      H9X            60.6367610221       21.4317774805       49.8922259307  MEMB      43              0.0000000000
      5803        49  POPC      H9Y            59.4852864157       20.0771859759       50.1559641073  MEMB      43              0.0000000000
      5804        49  POPC      C310           61.4119199355       19.5073163335       49.3135456367  MEMB      43              0.0000000000
      5805        49  POPC      H10X           61.1096740079       18.4433023043       49.4167613252  MEMB      43              0.0000000000
      5806        49  POPC      H10Y           62.4674294191       19.5880206620       49.6501690122  MEMB      43              0.0000000000
      5807        49  POPC      C311           61.3776603599       19.9465250217       47.8373136347  MEMB      43              0.0000000000
      5808        49  POPC      H11X           62.0214754763       19.2638378098       47.2385076808  MEMB      43              0.0000000000
      5809        49  POPC      H11Y           61.8234084998       20.9667910317       47.7744862294  MEMB      43              0.0000000000
      5810        49  POPC      C312           59.9818466565       19.9994469345       47.2005019156  MEMB      43              0.0000000000
      5811        49  POPC      H12X           60.0756897154       20.4941605789       46.2064311073  MEMB      43              0.0000000000
      5812        49  POPC      H12Y           59.3106180409       20.6317283981       47.8224434040  MEMB      43              0.0000000000
      5813        49  POPC      C313           59.3386437602       18.6188814026       47.0016115386  MEMB      43              0.0000000000
      5814        49  POPC      H13X           59.3674544248       18.0626297852       47.9660250769  MEMB      43              0.0000000000
      5815        49  POPC      H13Y           59.9395083305       18.0409387727       46.2654062038  MEMB      43              0.0000000000
      5816        49  POPC      C314           57.8711392136       18.6949634755       46.5443710100  MEMB      43              0.0000000000
      5817        49  POPC      H14X           57.2842471486       19.1843257817       47.3558668351  MEMB      43              0.0000000000
      5818        49  POPC      H14Y           57.4748861116       17.6632887200       46.4279011735  MEMB      43              0.0000000000
      5819        49  POPC      C315           57.6302881819       19.4834558031       45.2460697624  MEMB      43              0.0000000000
      5820        49  POPC      H15X           58.0018765264       20.5217699960       45.3879501307  MEMB      43              0.0000000000
      5821        49  POPC      H15Y           56.5339361689       19.5580193757       45.0787534830  MEMB      43              0.0000000000
      5822        49  POPC      C316           58.2500388434       18.8914977150       43.9807070119  MEMB      43              0.0000000000
      5823        49  POPC      H16X           58.1386307642       19.6051945112       43.1364228027  MEMB      43              0.0000000000
      5824        49  POPC      H16Y           57.7405799849       17.9517077427       43.6897531421  MEMB      43              0.0000000000
      5825        49  POPC      H16Z           59.3291457819       18.6775578444       44.1291120031  MEMB      43              0.0000000000
      5826        50  POPC      N              17.1125347175        9.1792793228       63.4876935517  MEMB      44              0.0000000000
      5827        50  POPC      C12            16.8373758042        7.6930907148       63.3869642734  MEMB      44              0.0000000000
      5828        50  POPC      H12A           17.1520487393        7.3414035594       62.4162930271  MEMB      44              0.0000000000
      5829        50  POPC      H12B           15.7731163805        7.4932045787       63.4718600686  MEMB      44              0.0000000000
      5830        50  POPC      C13            16.4492925280        9.7418082247       64.7123537080  MEMB      44              0.0000000000
      5831        50  POPC      H13A           15.4108400685       10.0011308997       64.5276447496  MEMB      44              0.0000000000
      5832        50  POPC      H13B           16.4978611608        9.0329762979       65.5327616527  MEMB      44              0.0000000000
      5833        50  POPC      H13C           16.9354369034       10.6833228923       64.9844978112  MEMB      44              0.0000000000
      5834        50  POPC      C14            18.5693118811        9.4659562386       63.6464161090  MEMB      44              0.0000000000
      5835        50  POPC      H14A           18.7116723118       10.5383096260       63.8194431993  MEMB      44              0.0000000000
      5836        50  POPC      H14B           18.9503719693        8.9863687901       64.5417583002  MEMB      44              0.0000000000
      5837        50  POPC      H14C           19.1698780318        9.2013808355       62.7897270012  MEMB      44              0.0000000000
      5838        50  POPC      C15            16.6899508793        9.9532010539       62.2849516273  MEMB      44              0.0000000000
      5839        50  POPC      H15A           16.9365802511       11.0080470755       62.4589652119  MEMB      44              0.0000000000
      5840        50  POPC      H15B           15.6185761185        9.9213194144       62.1202089863  MEMB      44              0.0000000000
      5841        50  POPC      H15C           17.2201217690        9.6233023729       61.4041026244  MEMB      44              0.0000000000
      5842        50  POPC      C11            17.5317419650        6.7911272458       64.4353371845  MEMB      44              0.0000000000
      5843        50  POPC      H11A           18.5961864914        7.0491651380       64.4883045031  MEMB      44              0.0000000000
      5844        50  POPC      H11B           17.5227898800        5.7420400079       64.0483978001  MEMB      44              0.0000000000
      5845        50  POPC      P              16.0717603664        5.7435776281       66.2884677214  MEMB      44              0.0000000000
      5846        50  POPC      O13            15.2267188440        5.2666650002       65.1864137872  MEMB      44              0.0000000000
      5847        50  POPC      O14            15.3951703378        6.1706923197       67.5274406988  MEMB      44              0.0000000000
      5848        50  POPC      O12            16.9861353637        6.9339243702       65.7558162648  MEMB      44              0.0000000000
      5849        50  POPC      O11            17.0842294446        4.5850722233       66.6522925640  MEMB      44              0.0000000000
      5850        50  POPC      C1             18.4019805120        4.7929319107       67.1576490194  MEMB      44              0.0000000000
      5851        50  POPC      HA             18.4899870258        4.2360670612       68.1157620770  MEMB      44              0.0000000000
      5852        50  POPC      HB             18.6290371559        5.8602600043       67.3935836549  MEMB      44              0.0000000000
      5853        50  POPC      C2             19.5085190798        4.2248385176       66.2183598386  MEMB      44              0.0000000000
      5854        50  POPC      HS             20.4013321964        3.9912607564       66.8532983467  MEMB      44              0.0000000000
      5855        50  POPC      O21            19.8483598711        5.1439160513       65.1715915251  MEMB      44              0.0000000000
      5856        50  POPC      C21            20.8220914027        5.9529785251       65.4835940718  MEMB      44              0.0000000000
      5857        50  POPC      O22            21.3041350251        6.1084931970       66.5953686131  MEMB      44              0.0000000000
      5858        50  POPC      C22            21.2536082729        6.7173052226       64.2314397780  MEMB      44              0.0000000000
      5859        50  POPC      H2R            22.2100569711        7.2046753035       64.4977535149  MEMB      44              0.0000000000
      5860        50  POPC      H2S            20.5081046515        7.5155890958       64.0851309180  MEMB      44              0.0000000000
      5861        50  POPC      C3             19.1595384430        2.8675158051       65.5540389605  MEMB      44              0.0000000000
      5862        50  POPC      HX             19.0806089567        2.1543614079       66.4016788812  MEMB      44              0.0000000000
      5863        50  POPC      HY             20.0594285458        2.5775806426       64.9546618049  MEMB      44              0.0000000000
      5864        50  POPC      O31            17.9318880103        2.8018814072       64.7708947856  MEMB      44              0.0000000000
      5865        50  POPC      C31            18.0718831777        3.1999383641       63.5129419730  MEMB      44              0.0000000000
      5866        50  POPC      O32            19.1127953852        3.5440541154       62.9950961454  MEMB      44              0.0000000000
      5867        50  POPC      C32            16.7454991728        3.1235304178       62.7498371935  MEMB      44              0.0000000000
      5868        50  POPC      H2X            15.9368114211        3.5754317009       63.3575665078  MEMB      44              0.0000000000
      5869        50  POPC      H2Y            16.5139698234        2.0513615254       62.5937000774  MEMB      44              0.0000000000
      5870        50  POPC      C23            21.4471308096        5.9131814964       62.9041572663  MEMB      44              0.0000000000
      5871        50  POPC      H3R            21.4775117792        4.8159841058       63.1027090389  MEMB      44              0.0000000000
      5872        50  POPC      H3S            22.4434966618        6.1893093325       62.4863262227  MEMB      44              0.0000000000
      5873        50  POPC      C24            20.3980427428        6.2085084478       61.8052465124  MEMB      44              0.0000000000
      5874        50  POPC      H4R            20.0734472317        7.2671978767       61.8372077019  MEMB      44              0.0000000000
      5875        50  POPC      H4S            19.4919226403        5.6016491726       61.9971820740  MEMB      44              0.0000000000
      5876        50  POPC      C25            20.9159099447        5.9210126165       60.3817787462  MEMB      44              0.0000000000
      5877        50  POPC      H5R            21.3539504998        4.8999871686       60.3439602384  MEMB      44              0.0000000000
      5878        50  POPC      H5S            21.7371024308        6.6324058489       60.1513039776  MEMB      44              0.0000000000
      5879        50  POPC      C26            19.8206713489        6.0428927635       59.3059089740  MEMB      44              0.0000000000
      5880        50  POPC      H6R            19.0878686430        6.8057346547       59.6501986062  MEMB      44              0.0000000000
      5881        50  POPC      H6S            19.2870541882        5.0697918066       59.2260858560  MEMB      44              0.0000000000
      5882        50  POPC      C27            20.3354625231        6.4755347421       57.9169940171  MEMB      44              0.0000000000
      5883        50  POPC      H7R            21.2063696949        5.8405382314       57.6492582072  MEMB      44              0.0000000000
      5884        50  POPC      H7S            20.7017933227        7.5242685207       57.9642904803  MEMB      44              0.0000000000
      5885        50  POPC      C28            19.2843179415        6.3789025581       56.7850380966  MEMB      44              0.0000000000
      5886        50  POPC      H8R            19.0769800480        5.2992089451       56.6148837036  MEMB      44              0.0000000000
      5887        50  POPC      H8S            19.7409956724        6.7720549259       55.8484420644  MEMB      44              0.0000000000
      5888        50  POPC      C29            17.9945145593        7.0910131843       57.1155371238  MEMB      44              0.0000000000
      5889        50  POPC      H91            17.5293163087        6.7602386635       58.0562613976  MEMB      44              0.0000000000
      5890        50  POPC      C210           17.3329654480        8.0001548028       56.3754126614  MEMB      44              0.0000000000
      5891        50  POPC      H101           16.3989148095        8.4133347363       56.7842637248  MEMB      44              0.0000000000
      5892        50  POPC      C211           17.6970526594        8.5522728036       55.0166351408  MEMB      44              0.0000000000
      5893        50  POPC      H11R           18.2182758644        7.8071402646       54.3783866877  MEMB      44              0.0000000000
      5894        50  POPC      H11S           18.4031917921        9.3938959529       55.1440965932  MEMB      44              0.0000000000
      5895        50  POPC      C212           16.4369855145        9.0702564596       54.2854112067  MEMB      44              0.0000000000
      5896        50  POPC      H12R           15.7901873250        9.6105627104       55.0165537093  MEMB      44              0.0000000000
      5897        50  POPC      H12S           15.8487419440        8.2202371106       53.8815374653  MEMB      44              0.0000000000
      5898        50  POPC      C213           16.7082902967       10.0716712662       53.1499008222  MEMB      44              0.0000000000
      5899        50  POPC      H13R           17.3074968883       10.8957593072       53.5740468117  MEMB      44              0.0000000000
      5900        50  POPC      H13S           15.7482120330       10.5134049414       52.8249187568  MEMB      44              0.0000000000
      5901        50  POPC      C214           17.3909145070        9.4728420742       51.9149317880  MEMB      44              0.0000000000
      5902        50  POPC      H14R           16.7877049302        8.6102447953       51.5641115366  MEMB      44              0.0000000000
      5903        50  POPC      H14S           18.3898929482        9.1093966286       52.2364807175  MEMB      44              0.0000000000
      5904        50  POPC      C215           17.5467044246       10.4307057480       50.7199806222  MEMB      44              0.0000000000
      5905        50  POPC      H15R           18.0953139777       11.3341288512       51.0684293629  MEMB      44              0.0000000000
      5906        50  POPC      H15S           16.5376698786       10.7506105854       50.3826998490  MEMB      44              0.0000000000
      5907        50  POPC      C216           18.3235282840        9.8461315974       49.5211737072  MEMB      44              0.0000000000
      5908        50  POPC      H16R           19.2555211058        9.3679343049       49.8941386465  MEMB      44              0.0000000000
      5909        50  POPC      H16S           18.6274893079       10.6804692444       48.8485082625  MEMB      44              0.0000000000
      5910        50  POPC      C217           17.5523438885        8.8137775783       48.6818382482  MEMB      44              0.0000000000
      5911        50  POPC      H17R           17.1465646447        8.0247103954       49.3531219398  MEMB      44              0.0000000000
      5912        50  POPC      H17S           18.2796773094        8.3157699574       47.9987378686  MEMB      44              0.0000000000
      5913        50  POPC      C218           16.4174042130        9.4045358581       47.8379339365  MEMB      44              0.0000000000
      5914        50  POPC      H18R           15.9504098951        8.6169639190       47.2083282720  MEMB      44              0.0000000000
      5915        50  POPC      H18S           16.8044657185       10.2035863266       47.1692723687  MEMB      44              0.0000000000
      5916        50  POPC      H18T           15.6323699078        9.8438952038       48.4896937574  MEMB      44              0.0000000000
      5917        50  POPC      C33            16.8570877506        3.8280909655       61.3761697477  MEMB      44              0.0000000000
      5918        50  POPC      H3X            17.8256323136        3.5757097775       60.8903894959  MEMB      44              0.0000000000
      5919        50  POPC      H3Y            16.8399583375        4.9289775831       61.5374604456  MEMB      44              0.0000000000
      5920        50  POPC      C34            15.7530401656        3.4444889231       60.3845253659  MEMB      44              0.0000000000
      5921        50  POPC      H4X            14.7557936206        3.6069371660       60.8567265436  MEMB      44              0.0000000000
      5922        50  POPC      H4Y            15.8150253341        2.3597547108       60.1423539262  MEMB      44              0.0000000000
      5923        50  POPC      C35            15.8450950793        4.2719209100       59.0883870592  MEMB      44              0.0000000000
      5924        50  POPC      H5X            16.8188548681        4.0792354579       58.5875055431  MEMB      44              0.0000000000
      5925        50  POPC      H5Y            15.8021918660        5.3512542995       59.3526703153  MEMB      44              0.0000000000
      5926        50  POPC      C36            14.7043948544        3.9529029629       58.1103159113  MEMB      44              0.0000000000
      5927        50  POPC      H6X            13.7448378234        4.0869995034       58.6618585477  MEMB      44              0.0000000000
      5928        50  POPC      H6Y            14.7735645157        2.8840138812       57.8073398947  MEMB      44              0.0000000000
      5929        50  POPC      C37            14.6825695381        4.8299320122       56.8480054492  MEMB      44              0.0000000000
      5930        50  POPC      H7X            14.7389972571        5.9034531871       57.1337095606  MEMB      44              0.0000000000
      5931        50  POPC      H7Y            13.7121944204        4.6815151181       56.3214599126  MEMB      44              0.0000000000
      5932        50  POPC      C38            15.8075638154        4.4852053143       55.8631803484  MEMB      44              0.0000000000
      5933        50  POPC      H8X            15.7529124660        3.4014345654       55.6191192141  MEMB      44              0.0000000000
      5934        50  POPC      H8Y            16.7933520636        4.6724155624       56.3398096070  MEMB      44              0.0000000000
      5935        50  POPC      C39            15.7157472920        5.2785794166       54.5528749570  MEMB      44              0.0000000000
      5936        50  POPC      H9X            15.5460295363        6.3497443971       54.7852176798  MEMB      44              0.0000000000
      5937        50  POPC      H9Y            14.8324348986        4.9084672500       53.9943277989  MEMB      44              0.0000000000
      5938        50  POPC      C310           16.9736453523        5.1298636687       53.6846184118  MEMB      44              0.0000000000
      5939        50  POPC      H10X           17.2212078135        4.0521880400       53.6405805004  MEMB      44              0.0000000000
      5940        50  POPC      H10Y           17.8274035022        5.6380585236       54.1806289809  MEMB      44              0.0000000000
      5941        50  POPC      C311           16.8193630364        5.6493914217       52.2465936845  MEMB      44              0.0000000000
      5942        50  POPC      H11X           16.5721559046        6.7267808462       52.2629898401  MEMB      44              0.0000000000
      5943        50  POPC      H11Y           15.9568721351        5.1387797211       51.7720599732  MEMB      44              0.0000000000
      5944        50  POPC      C312           18.0630738379        5.3923394025       51.3739799087  MEMB      44              0.0000000000
      5945        50  POPC      H12X           17.7503885653        5.3465426760       50.3057370213  MEMB      44              0.0000000000
      5946        50  POPC      H12Y           18.4889329996        4.4090316954       51.6456615963  MEMB      44              0.0000000000
      5947        50  POPC      C313           19.1233581796        6.4894554069       51.5115164907  MEMB      44              0.0000000000
      5948        50  POPC      H13X           19.3963765686        6.6406825765       52.5776796331  MEMB      44              0.0000000000
      5949        50  POPC      H13Y           18.6395001142        7.4150135522       51.1412322778  MEMB      44              0.0000000000
      5950        50  POPC      C314           20.3833787601        6.3248767426       50.6521502070  MEMB      44              0.0000000000
      5951        50  POPC      H14X           20.8324644147        7.3396442689       50.5371387052  MEMB      44              0.0000000000
      5952        50  POPC      H14Y           20.1098981654        5.9720681885       49.6333712298  MEMB      44              0.0000000000
      5953        50  POPC      C315           21.4569685077        5.4215665716       51.2620388263  MEMB      44              0.0000000000
      5954        50  POPC      H15X           21.1225591579        4.3627918050       51.1935933730  MEMB      44              0.0000000000
      5955        50  POPC      H15Y           21.5784634887        5.6656355832       52.3420776811  MEMB      44              0.0000000000
      5956        50  POPC      C316           22.8089233904        5.5885569189       50.5640892517  MEMB      44              0.0000000000
      5957        50  POPC      H16X           22.7091192610        5.4354590628       49.4677724983  MEMB      44              0.0000000000
      5958        50  POPC      H16Y           23.5492256722        4.8585897058       50.9551310157  MEMB      44              0.0000000000
      5959        50  POPC      H16Z           23.2097729496        6.6113490186       50.7325090688  MEMB      44              0.0000000000
      5960        51  POPC      N              57.7140668554       48.1590045662       65.7105118293  MEMB      45              0.0000000000
      5961        51  POPC      C12            57.2776816796       49.5102270002       65.1642694365  MEMB      45              0.0000000000
      5962        51  POPC      H12A           56.9031554291       50.1237495081       65.9799295398  MEMB      45              0.0000000000
      5963        51  POPC      H12B           56.4346103111       49.3610207054       64.4962614828  MEMB      45              0.0000000000
      5964        51  POPC      C13            58.7652199481       48.3576162300       66.7576646653  MEMB      45              0.0000000000
      5965        51  POPC      H13A           58.3709566963       48.8867329357       67.6178514860  MEMB      45              0.0000000000
      5966        51  POPC      H13B           59.1807513836       47.4216859617       67.1009104887  MEMB      45              0.0000000000
      5967        51  POPC      H13C           59.5616510478       48.9964503081       66.3637660231  MEMB      45              0.0000000000
      5968        51  POPC      C14            56.5085029176       47.5080256645       66.3190607007  MEMB      45              0.0000000000
      5969        51  POPC      H14A           56.7785951231       46.5760887183       66.7967559390  MEMB      45              0.0000000000
      5970        51  POPC      H14B           56.0769712262       48.1614108694       67.0723957317  MEMB      45              0.0000000000
      5971        51  POPC      H14C           55.7537794126       47.3100010854       65.5621553704  MEMB      45              0.0000000000
      5972        51  POPC      C15            58.3038276463       47.2771914003       64.6426948923  MEMB      45              0.0000000000
      5973        51  POPC      H15A           59.2537163793       47.6858779096       64.3033578275  MEMB      45              0.0000000000
      5974        51  POPC      H15B           57.6705047654       47.1701382430       63.7758933647  MEMB      45              0.0000000000
      5975        51  POPC      H15C           58.4947506391       46.2915358020       65.0437354216  MEMB      45              0.0000000000
      5976        51  POPC      C11            58.3373030813       50.3498720782       64.4252864708  MEMB      45              0.0000000000
      5977        51  POPC      H11A           57.8048500277       51.1958303335       63.9275570308  MEMB      45              0.0000000000
      5978        51  POPC      H11B           58.7850811580       49.6985388809       63.6400080647  MEMB      45              0.0000000000
      5979        51  POPC      P              60.5868962860       51.6327694822       64.6839351730  MEMB      45              0.0000000000
      5980        51  POPC      O13            61.7919229626       51.0406550941       65.3145712097  MEMB      45              0.0000000000
      5981        51  POPC      O14            60.4273037389       53.0957091597       64.8610381494  MEMB      45              0.0000000000
      5982        51  POPC      O12            59.3410975783       50.8555206710       65.3048666499  MEMB      45              0.0000000000
      5983        51  POPC      O11            60.5589197020       51.2057276055       63.1521306026  MEMB      45              0.0000000000
      5984        51  POPC      C1             59.8784509259       51.9315687266       62.1238963694  MEMB      45              0.0000000000
      5985        51  POPC      HA             60.6350658715       52.4490635647       61.4927467639  MEMB      45              0.0000000000
      5986        51  POPC      HB             59.2019151899       52.7104314774       62.5481111711  MEMB      45              0.0000000000
      5987        51  POPC      C2             59.0121761607       51.0317283726       61.1637362423  MEMB      45              0.0000000000
      5988        51  POPC      HS             58.3636396205       50.3713638884       61.7718978471  MEMB      45              0.0000000000
      5989        51  POPC      O21            59.8840248048       50.2323936309       60.3432895847  MEMB      45              0.0000000000
      5990        51  POPC      C21            59.3825034423       49.5932589068       59.2925331665  MEMB      45              0.0000000000
      5991        51  POPC      O22            58.2255524169       49.2585481282       59.1310195367  MEMB      45              0.0000000000
      5992        51  POPC      C22            60.5615033661       49.3263764442       58.3661774158  MEMB      45              0.0000000000
      5993        51  POPC      H2R            61.1941935054       48.5749116526       58.8815673690  MEMB      45              0.0000000000
      5994        51  POPC      H2S            61.1348945066       50.2718885912       58.3046292861  MEMB      45              0.0000000000
      5995        51  POPC      C3             58.0840116086       51.9349735458       60.3054458308  MEMB      45              0.0000000000
      5996        51  POPC      HX             57.5533815878       52.6331886334       60.9934231703  MEMB      45              0.0000000000
      5997        51  POPC      HY             57.3041170873       51.3415170873       59.7807039532  MEMB      45              0.0000000000
      5998        51  POPC      O31            58.9109263410       52.6021363432       59.3460967739  MEMB      45              0.0000000000
      5999        51  POPC      C31            58.6417556824       53.8491571337       59.0608684216  MEMB      45              0.0000000000
      6000        51  POPC      O32            57.7753748051       54.5381395525       59.5748263497  MEMB      45              0.0000000000
      6001        51  POPC      C32            59.6341481277       54.3140124709       57.9955526121  MEMB      45              0.0000000000
      6002        51  POPC      H2X            60.4796527599       54.7841427020       58.5365447843  MEMB      45              0.0000000000
      6003        51  POPC      H2Y            59.1067432559       55.0748691905       57.3869359824  MEMB      45              0.0000000000
      6004        51  POPC      C23            60.2245035979       48.8442468697       56.9407519114  MEMB      45              0.0000000000
      6005        51  POPC      H3R            59.2604227730       48.2898192246       56.9107787944  MEMB      45              0.0000000000
      6006        51  POPC      H3S            61.0326729170       48.1370292352       56.6406385956  MEMB      45              0.0000000000
      6007        51  POPC      C24            60.2541355522       49.9791254355       55.9112293758  MEMB      45              0.0000000000
      6008        51  POPC      H4R            61.1995025778       50.5545412921       56.0451773143  MEMB      45              0.0000000000
      6009        51  POPC      H4S            59.3966795462       50.6620640187       56.0956511296  MEMB      45              0.0000000000
      6010        51  POPC      C25            60.2162313304       49.4816640905       54.4607918694  MEMB      45              0.0000000000
      6011        51  POPC      H5R            61.0019507620       48.7126017873       54.2972185101  MEMB      45              0.0000000000
      6012        51  POPC      H5S            60.4436543023       50.3395746826       53.7901226465  MEMB      45              0.0000000000
      6013        51  POPC      C26            58.8445520418       48.9289725112       54.0700152340  MEMB      45              0.0000000000
      6014        51  POPC      H6R            58.0909265608       49.7196513926       54.2882946319  MEMB      45              0.0000000000
      6015        51  POPC      H6S            58.5889906010       48.0449763128       54.6936961092  MEMB      45              0.0000000000
      6016        51  POPC      C27            58.7739430870       48.5537083661       52.5837683219  MEMB      45              0.0000000000
      6017        51  POPC      H7R            59.4979252883       47.7317212399       52.3811474359  MEMB      45              0.0000000000
      6018        51  POPC      H7S            59.0953833082       49.4313506076       51.9790417651  MEMB      45              0.0000000000
      6019        51  POPC      C28            57.3698578432       48.1015762856       52.1393961176  MEMB      45              0.0000000000
      6020        51  POPC      H8R            57.1202126100       47.1691156201       52.6947519430  MEMB      45              0.0000000000
      6021        51  POPC      H8S            57.4064931141       47.8240871450       51.0651430403  MEMB      45              0.0000000000
      6022        51  POPC      C29            56.2953211667       49.1298033527       52.3777423752  MEMB      45              0.0000000000
      6023        51  POPC      H91            55.6138725328       48.8914983177       53.2081256193  MEMB      45              0.0000000000
      6024        51  POPC      C210           56.1191853922       50.2976460377       51.7360052896  MEMB      45              0.0000000000
      6025        51  POPC      H101           55.2808946038       50.9327365209       52.0566115488  MEMB      45              0.0000000000
      6026        51  POPC      C211           56.9392934065       50.8913355577       50.6167838216  MEMB      45              0.0000000000
      6027        51  POPC      H11R           56.3308890608       50.9317009192       49.6858280004  MEMB      45              0.0000000000
      6028        51  POPC      H11S           57.8477705595       50.2951555766       50.3848196370  MEMB      45              0.0000000000
      6029        51  POPC      C212           57.3585673175       52.3244753363       50.9913315100  MEMB      45              0.0000000000
      6030        51  POPC      H12R           58.0478659569       52.3082504250       51.8655105581  MEMB      45              0.0000000000
      6031        51  POPC      H12S           56.4570142770       52.8956926151       51.2984566778  MEMB      45              0.0000000000
      6032        51  POPC      C213           57.9990118261       53.1095435791       49.8378394196  MEMB      45              0.0000000000
      6033        51  POPC      H13R           57.9564058950       54.1931069962       50.0972499489  MEMB      45              0.0000000000
      6034        51  POPC      H13S           57.4080951634       52.9667653764       48.9079299914  MEMB      45              0.0000000000
      6035        51  POPC      C214           59.4655828243       52.7403392762       49.5997045554  MEMB      45              0.0000000000
      6036        51  POPC      H14R           59.5272322614       51.7536313803       49.0918150809  MEMB      45              0.0000000000
      6037        51  POPC      H14S           59.9473876642       52.6302741586       50.5959036685  MEMB      45              0.0000000000
      6038        51  POPC      C215           60.2303600676       53.8117538561       48.8064014564  MEMB      45              0.0000000000
      6039        51  POPC      H15R           61.3224355425       53.6027404505       48.8450092473  MEMB      45              0.0000000000
      6040        51  POPC      H15S           60.0698430541       54.7922834407       49.3116359158  MEMB      45              0.0000000000
      6041        51  POPC      C216           59.7937096539       53.9298264083       47.3375285394  MEMB      45              0.0000000000
      6042        51  POPC      H16R           59.7478838474       55.0093964958       47.0639882359  MEMB      45              0.0000000000
      6043        51  POPC      H16S           58.7688993860       53.5187366546       47.2117351520  MEMB      45              0.0000000000
      6044        51  POPC      C217           60.7514518553       53.2421854123       46.3506888379  MEMB      45              0.0000000000
      6045        51  POPC      H17R           61.7090580519       53.8106300195       46.3574302045  MEMB      45              0.0000000000
      6046        51  POPC      H17S           60.3223007677       53.3313591420       45.3264211728  MEMB      45              0.0000000000
      6047        51  POPC      C218           61.0563139713       51.7698016812       46.6527819695  MEMB      45              0.0000000000
      6048        51  POPC      H18R           60.1225778380       51.1848240535       46.7854708409  MEMB      45              0.0000000000
      6049        51  POPC      H18S           61.6539333266       51.6740667877       47.5842582976  MEMB      45              0.0000000000
      6050        51  POPC      H18T           61.6381768075       51.3161899867       45.8213786267  MEMB      45              0.0000000000
      6051        51  POPC      C33            60.1783566689       53.1947735628       57.0716878678  MEMB      45              0.0000000000
      6052        51  POPC      H3X            59.3448354471       52.8115342923       56.4420452738  MEMB      45              0.0000000000
      6053        51  POPC      H3Y            60.5592187522       52.3489184527       57.6880420790  MEMB      45              0.0000000000
      6054        51  POPC      C34            61.3406528493       53.6502620722       56.1754755629  MEMB      45              0.0000000000
      6055        51  POPC      H4X            62.2324892951       53.0149461012       56.3824728694  MEMB      45              0.0000000000
      6056        51  POPC      H4Y            61.6177966878       54.6959142551       56.4337737510  MEMB      45              0.0000000000
      6057        51  POPC      C35            61.0327405085       53.5648875651       54.6728284142  MEMB      45              0.0000000000
      6058        51  POPC      H5X            60.1265590356       54.1649436819       54.4420737069  MEMB      45              0.0000000000
      6059        51  POPC      H5Y            60.7885586777       52.5162917490       54.4007978295  MEMB      45              0.0000000000
      6060        51  POPC      C36            62.2020790131       54.0664428521       53.8136658963  MEMB      45              0.0000000000
      6061        51  POPC      H6X            62.8614502164       54.7158362393       54.4320290480  MEMB      45              0.0000000000
      6062        51  POPC      H6Y            61.8014874678       54.6963705126       52.9860693988  MEMB      45              0.0000000000
      6063        51  POPC      C37            63.0291141553       52.9277579626       53.2018661020  MEMB      45              0.0000000000
      6064        51  POPC      H7X            63.2842446955       52.1851560127       53.9902975312  MEMB      45              0.0000000000
      6065        51  POPC      H7Y            63.9858736667       53.3364179918       52.8055154390  MEMB      45              0.0000000000
      6066        51  POPC      C38            62.2860359073       52.2376111101       52.0539073222  MEMB      45              0.0000000000
      6067        51  POPC      H8X            61.9412548363       53.0058684611       51.3248463124  MEMB      45              0.0000000000
      6068        51  POPC      H8Y            61.3823919703       51.7282876252       52.4508783134  MEMB      45              0.0000000000
      6069        51  POPC      C39            63.1511277941       51.2184029243       51.3114910550  MEMB      45              0.0000000000
      6070        51  POPC      H9X            63.8347310711       50.7097471137       52.0282434030  MEMB      45              0.0000000000
      6071        51  POPC      H9Y            63.7680234159       51.7747055787       50.5724566788  MEMB      45              0.0000000000
      6072        51  POPC      C310           62.3109248891       50.1565489359       50.5967777763  MEMB      45              0.0000000000
      6073        51  POPC      H10X           61.5708153175       50.6684957942       49.9414283911  MEMB      45              0.0000000000
      6074        51  POPC      H10Y           61.7408997213       49.5755373420       51.3573468518  MEMB      45              0.0000000000
      6075        51  POPC      C311           63.1609080188       49.1958085425       49.7547934075  MEMB      45              0.0000000000
      6076        51  POPC      H11X           64.0220476848       48.8346997613       50.3616300421  MEMB      45              0.0000000000
      6077        51  POPC      H11Y           63.5657417127       49.7488520904       48.8776774894  MEMB      45              0.0000000000
      6078        51  POPC      C312           62.3819301896       47.9785958520       49.2436369268  MEMB      45              0.0000000000
      6079        51  POPC      H12X           62.0380582762       47.3747247487       50.1134492906  MEMB      45              0.0000000000
      6080        51  POPC      H12Y           63.0603229707       47.3458152175       48.6309502104  MEMB      45              0.0000000000
      6081        51  POPC      C313           61.1737056021       48.3575183348       48.3899291797  MEMB      45              0.0000000000
      6082        51  POPC      H13X           61.4965851036       49.0086783722       47.5475698578  MEMB      45              0.0000000000
      6083        51  POPC      H13Y           60.4861528076       48.9635653016       49.0167386821  MEMB      45              0.0000000000
      6084        51  POPC      C314           60.4348167868       47.1348361715       47.8294819611  MEMB      45              0.0000000000
      6085        51  POPC      H14X           60.3027313162       46.3751390751       48.6316112680  MEMB      45              0.0000000000
      6086        51  POPC      H14Y           61.0483250198       46.6746271397       47.0220554231  MEMB      45              0.0000000000
      6087        51  POPC      C315           59.0619954920       47.5252298382       47.2789148346  MEMB      45              0.0000000000
      6088        51  POPC      H15X           58.6493517963       46.6970341692       46.6577300637  MEMB      45              0.0000000000
      6089        51  POPC      H15Y           59.2049711692       48.4032428761       46.6086119957  MEMB      45              0.0000000000
      6090        51  POPC      C316           58.0585573593       47.8745272653       48.3814169378  MEMB      45              0.0000000000
      6091        51  POPC      H16X           58.5216710435       48.4866904143       49.1800825538  MEMB      45              0.0000000000
      6092        51  POPC      H16Y           57.6507674936       46.9534323577       48.8501919209  MEMB      45              0.0000000000
      6093        51  POPC      H16Z           57.2197076332       48.4689510404       47.9770766316  MEMB      45              0.0000000000
      6094        52  POPC      N              31.1182009546        1.3306197835       63.2784831111  MEMB      46              0.0000000000
      6095        52  POPC      C12            32.1712365565        1.0708282012       64.3604432384  MEMB      46              0.0000000000
      6096        52  POPC      H12A           33.0851839119        1.5980518368       64.0798412244  MEMB      46              0.0000000000
      6097        52  POPC      H12B           32.4175874757        0.0168005557       64.3656190648  MEMB      46              0.0000000000
      6098        52  POPC      C13            29.9339529548        0.4303377904       63.4472421516  MEMB      46              0.0000000000
      6099        52  POPC      H13A           30.2358444104       -0.6146153800       63.3395716653  MEMB      46              0.0000000000
      6100        52  POPC      H13B           29.4752383757        0.5556073073       64.4211079655  MEMB      46              0.0000000000
      6101        52  POPC      H13C           29.1990656703        0.6337462647       62.6774298063  MEMB      46              0.0000000000
      6102        52  POPC      C14            30.7322655489        2.7649016467       63.3535586473  MEMB      46              0.0000000000
      6103        52  POPC      H14A           31.6385729072        3.3674037867       63.2930170662  MEMB      46              0.0000000000
      6104        52  POPC      H14B           30.0389767064        3.0564931078       62.5776750778  MEMB      46              0.0000000000
      6105        52  POPC      H14C           30.3171699634        2.9862154915       64.3307450995  MEMB      46              0.0000000000
      6106        52  POPC      C15            31.7086711700        1.0872436077       61.9174545097  MEMB      46              0.0000000000
      6107        52  POPC      H15A           31.0138036477        1.3516358682       61.1241642561  MEMB      46              0.0000000000
      6108        52  POPC      H15B           31.9337291810        0.0337891350       61.7880775806  MEMB      46              0.0000000000
      6109        52  POPC      H15C           32.6207708126        1.6561798917       61.7856376944  MEMB      46              0.0000000000
      6110        52  POPC      C11            31.8885277415        1.5476487391       65.8228686488  MEMB      46              0.0000000000
      6111        52  POPC      H11A           32.6087093948        1.0394549207       66.5063535488  MEMB      46              0.0000000000
      6112        52  POPC      H11B           30.8767592366        1.1981655027       66.1216492392  MEMB      46              0.0000000000
      6113        52  POPC      P              33.3846710387        3.7236339987       66.0055394285  MEMB      46              0.0000000000
      6114        52  POPC      O13            34.2804470593        3.1776793627       67.0685985058  MEMB      46              0.0000000000
      6115        52  POPC      O14            33.1915047652        5.1888915377       65.8875030284  MEMB      46              0.0000000000
      6116        52  POPC      O12            31.9577695564        2.9699214174       65.9993418755  MEMB      46              0.0000000000
      6117        52  POPC      O11            33.9426438403        3.1997573629       64.6371120545  MEMB      46              0.0000000000
      6118        52  POPC      C1             35.2809293288        2.7675149128       64.4082413133  MEMB      46              0.0000000000
      6119        52  POPC      HA             35.3593740588        1.6717239469       64.5751792967  MEMB      46              0.0000000000
      6120        52  POPC      HB             35.9931892521        3.2697843216       65.1047684703  MEMB      46              0.0000000000
      6121        52  POPC      C2             35.7569059059        3.1078426654       62.9607250609  MEMB      46              0.0000000000
      6122        52  POPC      HS             36.6577406871        3.7500219418       63.0605126517  MEMB      46              0.0000000000
      6123        52  POPC      O21            34.7355805298        3.7859346990       62.2105420302  MEMB      46              0.0000000000
      6124        52  POPC      C21            34.6548663093        5.0749014417       62.4723772545  MEMB      46              0.0000000000
      6125        52  POPC      O22            35.3390501227        5.7223888862       63.2431686386  MEMB      46              0.0000000000
      6126        52  POPC      C22            33.6891614741        5.7037541633       61.4712019019  MEMB      46              0.0000000000
      6127        52  POPC      H2R            34.0808649636        5.4964113423       60.4530405125  MEMB      46              0.0000000000
      6128        52  POPC      H2S            33.7389611260        6.7924548866       61.6386923284  MEMB      46              0.0000000000
      6129        52  POPC      C3             36.2275233035        1.8824841221       62.1095045641  MEMB      46              0.0000000000
      6130        52  POPC      HX             35.5381177863        1.0371244802       62.3266970612  MEMB      46              0.0000000000
      6131        52  POPC      HY             37.2464975977        1.5775993149       62.4413736630  MEMB      46              0.0000000000
      6132        52  POPC      O31            36.2174586200        2.0997168980       60.6759920936  MEMB      46              0.0000000000
      6133        52  POPC      C31            36.8414455171        3.1703732461       60.2007170695  MEMB      46              0.0000000000
      6134        52  POPC      O32            37.4244534421        4.0183097515       60.8503849133  MEMB      46              0.0000000000
      6135        52  POPC      C32            36.7240328876        3.2396381546       58.6807345902  MEMB      46              0.0000000000
      6136        52  POPC      H2X            35.8309940866        3.8511810591       58.4370455161  MEMB      46              0.0000000000
      6137        52  POPC      H2Y            36.5746805527        2.2107025874       58.2921543269  MEMB      46              0.0000000000
      6138        52  POPC      C23            32.2331321976        5.2061888317       61.5869842371  MEMB      46              0.0000000000
      6139        52  POPC      H3R            31.9294945541        5.2061082475       62.6593523122  MEMB      46              0.0000000000
      6140        52  POPC      H3S            32.1896347959        4.1598632909       61.2060348970  MEMB      46              0.0000000000
      6141        52  POPC      C24            31.2231519633        6.0673930268       60.8073097354  MEMB      46              0.0000000000
      6142        52  POPC      H4R            31.0181512156        6.9721094617       61.4222338764  MEMB      46              0.0000000000
      6143        52  POPC      H4S            30.2734792566        5.5000391605       60.7027909544  MEMB      46              0.0000000000
      6144        52  POPC      C25            31.6906288203        6.5433881582       59.4221233630  MEMB      46              0.0000000000
      6145        52  POPC      H5R            32.6121733724        7.1489751083       59.5606069629  MEMB      46              0.0000000000
      6146        52  POPC      H5S            30.9289758062        7.2265919831       58.9816616554  MEMB      46              0.0000000000
      6147        52  POPC      C26            32.0368379215        5.4396380997       58.4118465899  MEMB      46              0.0000000000
      6148        52  POPC      H6R            32.4959076063        4.5604500257       58.9091077091  MEMB      46              0.0000000000
      6149        52  POPC      H6S            32.8041073157        5.8605455526       57.7195195150  MEMB      46              0.0000000000
      6150        52  POPC      C27            30.8444508698        5.0151367001       57.5475572207  MEMB      46              0.0000000000
      6151        52  POPC      H7R            30.2679551367        5.9312077146       57.2776615157  MEMB      46              0.0000000000
      6152        52  POPC      H7S            30.1615453705        4.3524257825       58.1233460585  MEMB      46              0.0000000000
      6153        52  POPC      C28            31.2656056201        4.3578732990       56.2210370407  MEMB      46              0.0000000000
      6154        52  POPC      H8R            31.9322809229        5.0789166176       55.6967436004  MEMB      46              0.0000000000
      6155        52  POPC      H8S            30.3441300439        4.2331048298       55.6072549969  MEMB      46              0.0000000000
      6156        52  POPC      C29            31.9414265027        3.0246013044       56.4019854058  MEMB      46              0.0000000000
      6157        52  POPC      H91            31.7187251029        2.5364446021       57.3645969565  MEMB      46              0.0000000000
      6158        52  POPC      C210           32.7478455286        2.3959421620       55.5240354134  MEMB      46              0.0000000000
      6159        52  POPC      H101           33.1489483735        1.4106025436       55.8111904785  MEMB      46              0.0000000000
      6160        52  POPC      C211           33.1777413142        2.8503409691       54.1452002918  MEMB      46              0.0000000000
      6161        52  POPC      H11R           33.4034301984        1.9395639091       53.5442226383  MEMB      46              0.0000000000
      6162        52  POPC      H11S           34.1279265731        3.4275097269       54.2105833723  MEMB      46              0.0000000000
      6163        52  POPC      C212           32.1740238340        3.6668451983       53.3046171117  MEMB      46              0.0000000000
      6164        52  POPC      H12R           32.1527041633        4.7232943842       53.6476471265  MEMB      46              0.0000000000
      6165        52  POPC      H12S           31.1546335833        3.2403492802       53.4450462511  MEMB      46              0.0000000000
      6166        52  POPC      C213           32.4886789542        3.6572854173       51.8026420008  MEMB      46              0.0000000000
      6167        52  POPC      H13R           32.5518642200        2.6012741085       51.4550162153  MEMB      46              0.0000000000
      6168        52  POPC      H13S           33.4741166550        4.1383328299       51.6161650134  MEMB      46              0.0000000000
      6169        52  POPC      C214           31.3924223489        4.3777739854       51.0094750691  MEMB      46              0.0000000000
      6170        52  POPC      H14R           31.4213488897        5.4620120402       51.2497417089  MEMB      46              0.0000000000
      6171        52  POPC      H14S           30.4048768233        3.9891255010       51.3533473347  MEMB      46              0.0000000000
      6172        52  POPC      C215           31.4757544846        4.1672684334       49.4915086339  MEMB      46              0.0000000000
      6173        52  POPC      H15R           30.4815756138        4.4352928933       49.0675871812  MEMB      46              0.0000000000
      6174        52  POPC      H15S           31.6539098861        3.0911115131       49.2757279452  MEMB      46              0.0000000000
      6175        52  POPC      C216           32.5546812186        5.0237714165       48.8124543938  MEMB      46              0.0000000000
      6176        52  POPC      H16R           33.5521760217        4.7478972729       49.2211398352  MEMB      46              0.0000000000
      6177        52  POPC      H16S           32.3703719813        6.0914371358       49.0685935754  MEMB      46              0.0000000000
      6178        52  POPC      C217           32.5826100072        4.8939586225       47.2800082879  MEMB      46              0.0000000000
      6179        52  POPC      H17R           32.9079939308        3.8671015965       47.0033008971  MEMB      46              0.0000000000
      6180        52  POPC      H17S           33.3472422366        5.6001464957       46.8854786174  MEMB      46              0.0000000000
      6181        52  POPC      C218           31.2491839777        5.1957047375       46.5954303096  MEMB      46              0.0000000000
      6182        52  POPC      H18R           30.4877506105        4.4300284906       46.8543542185  MEMB      46              0.0000000000
      6183        52  POPC      H18S           31.3664555774        5.2178191378       45.4913935250  MEMB      46              0.0000000000
      6184        52  POPC      H18T           30.8676032296        6.1801890645       46.9246694020  MEMB      46              0.0000000000
      6185        52  POPC      C33            37.9943847550        3.8798311971       58.0599723556  MEMB      46              0.0000000000
      6186        52  POPC      H3X            38.8626926691        3.2136962037       58.2630755182  MEMB      46              0.0000000000
      6187        52  POPC      H3Y            38.2265557637        4.8579545674       58.5388802669  MEMB      46              0.0000000000
      6188        52  POPC      C34            37.9317621617        4.1021589282       56.5405204045  MEMB      46              0.0000000000
      6189        52  POPC      H4X            38.9754001457        4.1195885393       56.1518836077  MEMB      46              0.0000000000
      6190        52  POPC      H4Y            37.4857034272        5.0882444043       56.3040583529  MEMB      46              0.0000000000
      6191        52  POPC      C35            37.1193300652        3.0420951005       55.7973257700  MEMB      46              0.0000000000
      6192        52  POPC      H5X            36.0355518302        3.1874827790       56.0129475032  MEMB      46              0.0000000000
      6193        52  POPC      H5Y            37.4017901117        2.0396197697       56.1704709935  MEMB      46              0.0000000000
      6194        52  POPC      C36            37.3363915040        3.0845548608       54.2863994283  MEMB      46              0.0000000000
      6195        52  POPC      H6X            38.4229328072        3.0383346129       54.0502542534  MEMB      46              0.0000000000
      6196        52  POPC      H6Y            36.9489177529        4.0574957713       53.9065530292  MEMB      46              0.0000000000
      6197        52  POPC      C37            36.6097492901        1.9303714865       53.5875272965  MEMB      46              0.0000000000
      6198        52  POPC      H7X            35.6807184533        1.7050739806       54.1575842719  MEMB      46              0.0000000000
      6199        52  POPC      H7Y            37.2363954339        1.0111576282       53.6116602215  MEMB      46              0.0000000000
      6200        52  POPC      C38            36.2130914366        2.2718816339       52.1491553176  MEMB      46              0.0000000000
      6201        52  POPC      H8X            35.6755025560        3.2454621017       52.1349546352  MEMB      46              0.0000000000
      6202        52  POPC      H8Y            35.5050297970        1.4958621474       51.7822283849  MEMB      46              0.0000000000
      6203        52  POPC      C39            37.4175369633        2.3331729335       51.2045691683  MEMB      46              0.0000000000
      6204        52  POPC      H9X            37.8236342466        1.3056579063       51.1272673168  MEMB      46              0.0000000000
      6205        52  POPC      H9Y            38.2178723903        2.9656046004       51.6503296710  MEMB      46              0.0000000000
      6206        52  POPC      C310           37.0896908334        2.8831618364       49.8066526978  MEMB      46              0.0000000000
      6207        52  POPC      H10X           37.9557791239        2.6956317877       49.1325322173  MEMB      46              0.0000000000
      6208        52  POPC      H10Y           36.9670456440        3.9874738286       49.8992314733  MEMB      46              0.0000000000
      6209        52  POPC      C311           35.8077876129        2.3297723874       49.1563191501  MEMB      46              0.0000000000
      6210        52  POPC      H11X           35.6727811616        2.8338583050       48.1742981495  MEMB      46              0.0000000000
      6211        52  POPC      H11Y           34.9290331054        2.6004487218       49.7832058847  MEMB      46              0.0000000000
      6212        52  POPC      C312           35.8037751941        0.8110228763       48.9294903328  MEMB      46              0.0000000000
      6213        52  POPC      H12X           35.9947004900        0.3003337022       49.8978160457  MEMB      46              0.0000000000
      6214        52  POPC      H12Y           36.6259499692        0.5385975379       48.2300712652  MEMB      46              0.0000000000
      6215        52  POPC      C313           34.4688297169        0.2805583378       48.3805385217  MEMB      46              0.0000000000
      6216        52  POPC      H13X           33.6712536947        0.4686537553       49.1337159241  MEMB      46              0.0000000000
      6217        52  POPC      H13Y           34.5597319700       -0.8190075068       48.2398271012  MEMB      46              0.0000000000
      6218        52  POPC      C314           34.0674568396        0.8900657280       47.0319239492  MEMB      46              0.0000000000
      6219        52  POPC      H14X           34.8800918264        0.6727562426       46.3072274074  MEMB      46              0.0000000000
      6220        52  POPC      H14Y           33.9865169379        1.9938048633       47.1198597940  MEMB      46              0.0000000000
      6221        52  POPC      C315           32.7397390550        0.3462929842       46.4884397971  MEMB      46              0.0000000000
      6222        52  POPC      H15X           32.7616343531       -0.7671818325       46.5044798704  MEMB      46              0.0000000000
      6223        52  POPC      H15Y           32.6380181111        0.6600196090       45.4245878263  MEMB      46              0.0000000000
      6224        52  POPC      C316           31.5145009571        0.8531360795       47.2494564834  MEMB      46              0.0000000000
      6225        52  POPC      H16X           31.5280117593        0.4998409332       48.3017655319  MEMB      46              0.0000000000
      6226        52  POPC      H16Y           30.5834784467        0.4907202287       46.7667177371  MEMB      46              0.0000000000
      6227        52  POPC      H16Z           31.4907535163        1.9630432917       47.2524741654  MEMB      46              0.0000000000
      6228        53  POPC      N              44.7281501356        5.0741053101       66.4747279642  MEMB      47              0.0000000000
      6229        53  POPC      C12            45.1413879411        3.9366693461       65.5465275110  MEMB      47              0.0000000000
      6230        53  POPC      H12A           45.4829326086        4.3633469728       64.6059026963  MEMB      47              0.0000000000
      6231        53  POPC      H12B           44.2778752759        3.3223740641       65.3416980820  MEMB      47              0.0000000000
      6232        53  POPC      C13            44.1918225039        4.4791686463       67.7406776620  MEMB      47              0.0000000000
      6233        53  POPC      H13A           44.9673470869        3.9077575087       68.2608179871  MEMB      47              0.0000000000
      6234        53  POPC      H13B           43.8723525727        5.2301781423       68.4461190051  MEMB      47              0.0000000000
      6235        53  POPC      H13C           43.3620174629        3.8006929767       67.5628629169  MEMB      47              0.0000000000
      6236        53  POPC      C14            45.8949687218        5.9414505007       66.8274385244  MEMB      47              0.0000000000
      6237        53  POPC      H14A           46.4072269016        6.3205974190       65.9509495515  MEMB      47              0.0000000000
      6238        53  POPC      H14B           45.6355675598        6.7894882126       67.4500419286  MEMB      47              0.0000000000
      6239        53  POPC      H14C           46.6598940023        5.3503449135       67.3350504431  MEMB      47              0.0000000000
      6240        53  POPC      C15            43.6641426725        5.9045376820       65.8332317074  MEMB      47              0.0000000000
      6241        53  POPC      H15A           42.8025109607        5.2986557744       65.5720647730  MEMB      47              0.0000000000
      6242        53  POPC      H15B           44.0392342122        6.4279551831       64.9545636371  MEMB      47              0.0000000000
      6243        53  POPC      H15C           43.3325266646        6.6801342323       66.5223379171  MEMB      47              0.0000000000
      6244        53  POPC      C11            46.2781086168        2.9798997165       65.9883559413  MEMB      47              0.0000000000
      6245        53  POPC      H11A           46.2804658418        2.0688794102       65.3410929977  MEMB      47              0.0000000000
      6246        53  POPC      H11B           46.0928450678        2.6210392726       67.0262180470  MEMB      47              0.0000000000
      6247        53  POPC      P              48.2231778213        3.9222945820       64.5267730668  MEMB      47              0.0000000000
      6248        53  POPC      O13            48.3820653833        2.6318923032       63.8239767035  MEMB      47              0.0000000000
      6249        53  POPC      O14            49.4504669213        4.7196443426       64.7730122353  MEMB      47              0.0000000000
      6250        53  POPC      O12            47.5399885354        3.6261457964       65.9249067228  MEMB      47              0.0000000000
      6251        53  POPC      O11            47.1333580601        4.8106006771       63.7638517579  MEMB      47              0.0000000000
      6252        53  POPC      C1             47.1866519486        6.2443223127       63.7586296741  MEMB      47              0.0000000000
      6253        53  POPC      HA             47.9488452514        6.6365045074       64.4797475612  MEMB      47              0.0000000000
      6254        53  POPC      HB             46.2234498317        6.6525948294       64.1050349035  MEMB      47              0.0000000000
      6255        53  POPC      C2             47.5864004867        6.8756005511       62.3766381224  MEMB      47              0.0000000000
      6256        53  POPC      HS             47.9126511804        7.9180267885       62.5974131069  MEMB      47              0.0000000000
      6257        53  POPC      O21            46.5725183040        6.9324752513       61.3428081342  MEMB      47              0.0000000000
      6258        53  POPC      C21            45.4582014742        7.5830008134       61.6093516445  MEMB      47              0.0000000000
      6259        53  POPC      O22            45.1357213417        8.0617933968       62.6774236418  MEMB      47              0.0000000000
      6260        53  POPC      C22            44.5346985692        7.5757133536       60.3988908156  MEMB      47              0.0000000000
      6261        53  POPC      H2R            45.1266354626        7.7662123644       59.4805144870  MEMB      47              0.0000000000
      6262        53  POPC      H2S            43.8054177420        8.3988081086       60.5342833254  MEMB      47              0.0000000000
      6263        53  POPC      C3             48.8072483237        6.1098280822       61.7983641314  MEMB      47              0.0000000000
      6264        53  POPC      HX             49.4642254734        5.7941237669       62.6324954054  MEMB      47              0.0000000000
      6265        53  POPC      HY             49.4140158670        6.8244109463       61.2164446237  MEMB      47              0.0000000000
      6266        53  POPC      O31            48.4114268685        4.9475983839       61.0412686021  MEMB      47              0.0000000000
      6267        53  POPC      C31            48.4641557559        5.1426793106       59.7324098622  MEMB      47              0.0000000000
      6268        53  POPC      O32            48.9855326040        6.0945673942       59.1742254157  MEMB      47              0.0000000000
      6269        53  POPC      C32            47.7882618413        3.9872289468       59.0220174958  MEMB      47              0.0000000000
      6270        53  POPC      H2X            46.7067103606        4.0341979422       59.2674499720  MEMB      47              0.0000000000
      6271        53  POPC      H2Y            48.2091129250        3.0341877832       59.4076243086  MEMB      47              0.0000000000
      6272        53  POPC      C23            43.8119710274        6.2217755483       60.3155096251  MEMB      47              0.0000000000
      6273        53  POPC      H3R            43.4213110932        5.9320082423       61.3187453449  MEMB      47              0.0000000000
      6274        53  POPC      H3S            44.5672678241        5.4626056049       60.0066158835  MEMB      47              0.0000000000
      6275        53  POPC      C24            42.6351781065        6.1702327260       59.3359811738  MEMB      47              0.0000000000
      6276        53  POPC      H4R            41.8818073297        6.9320501341       59.6355533167  MEMB      47              0.0000000000
      6277        53  POPC      H4S            42.1544345011        5.1671465226       59.4193683943  MEMB      47              0.0000000000
      6278        53  POPC      C25            43.0255836148        6.4019791782       57.8690280892  MEMB      47              0.0000000000
      6279        53  POPC      H5R            43.4862104150        7.4103638177       57.7943404847  MEMB      47              0.0000000000
      6280        53  POPC      H5S            42.0975347112        6.4075296660       57.2551351591  MEMB      47              0.0000000000
      6281        53  POPC      C26            43.9756609275        5.3468575220       57.2766054698  MEMB      47              0.0000000000
      6282        53  POPC      H6R            43.4923798514        4.3484707512       57.3796077579  MEMB      47              0.0000000000
      6283        53  POPC      H6S            44.9290850589        5.3332073250       57.8482874907  MEMB      47              0.0000000000
      6284        53  POPC      C27            44.2849631653        5.5647455646       55.7876622059  MEMB      47              0.0000000000
      6285        53  POPC      H7R            43.3134307203        5.5507283982       55.2535942850  MEMB      47              0.0000000000
      6286        53  POPC      H7S            44.8776903471        4.7052977810       55.4027515206  MEMB      47              0.0000000000
      6287        53  POPC      C28            45.0516027457        6.8738028929       55.5073921595  MEMB      47              0.0000000000
      6288        53  POPC      H8R            46.0955232577        6.7347174804       55.8700149865  MEMB      47              0.0000000000
      6289        53  POPC      H8S            44.6173088170        7.6956361605       56.1100012654  MEMB      47              0.0000000000
      6290        53  POPC      C29            44.9805686026        7.2749216492       54.0566529550  MEMB      47              0.0000000000
      6291        53  POPC      H91            43.9784085241        7.2165695867       53.6077638804  MEMB      47              0.0000000000
      6292        53  POPC      C210           46.0017390560        7.6965289649       53.2969116863  MEMB      47              0.0000000000
      6293        53  POPC      H101           45.8096064668        7.9369855500       52.2407638367  MEMB      47              0.0000000000
      6294        53  POPC      C211           47.4316552823        7.8570870663       53.7380387056  MEMB      47              0.0000000000
      6295        53  POPC      H11R           47.5219675556        8.0204942107       54.8365162009  MEMB      47              0.0000000000
      6296        53  POPC      H11S           47.8934590610        8.7383046812       53.2434539359  MEMB      47              0.0000000000
      6297        53  POPC      C212           48.2146699891        6.5986919856       53.3638617797  MEMB      47              0.0000000000
      6298        53  POPC      H12R           48.1118079363        6.4193472544       52.2727652740  MEMB      47              0.0000000000
      6299        53  POPC      H12S           47.7849664044        5.7238609579       53.8993525954  MEMB      47              0.0000000000
      6300        53  POPC      C213           49.6921262258        6.6747239045       53.7349329674  MEMB      47              0.0000000000
      6301        53  POPC      H13R           49.7444085678        6.6814271194       54.8453352664  MEMB      47              0.0000000000
      6302        53  POPC      H13S           50.1251483979        7.6323587701       53.3718262675  MEMB      47              0.0000000000
      6303        53  POPC      C214           50.5109156409        5.4881909286       53.2035214643  MEMB      47              0.0000000000
      6304        53  POPC      H14R           50.1532319600        4.5521090265       53.6893554801  MEMB      47              0.0000000000
      6305        53  POPC      H14S           51.5698744755        5.6290563101       53.5110696141  MEMB      47              0.0000000000
      6306        53  POPC      C215           50.4548506215        5.3034882134       51.6748151755  MEMB      47              0.0000000000
      6307        53  POPC      H15R           49.5167755059        4.7773064264       51.4007532869  MEMB      47              0.0000000000
      6308        53  POPC      H15S           51.2952263623        4.6399240308       51.3767668314  MEMB      47              0.0000000000
      6309        53  POPC      C216           50.5381809560        6.6154572608       50.8799239728  MEMB      47              0.0000000000
      6310        53  POPC      H16R           51.1900807945        7.3189006603       51.4357943068  MEMB      47              0.0000000000
      6311        53  POPC      H16S           49.5380400146        7.0957695043       50.8149472298  MEMB      47              0.0000000000
      6312        53  POPC      C217           51.1132137586        6.4488506704       49.4691048860  MEMB      47              0.0000000000
      6313        53  POPC      H17R           52.0903884622        5.9188713614       49.5297180197  MEMB      47              0.0000000000
      6314        53  POPC      H17S           51.3105760305        7.4686990711       49.0660368168  MEMB      47              0.0000000000
      6315        53  POPC      C218           50.1883877782        5.7126371281       48.5096689068  MEMB      47              0.0000000000
      6316        53  POPC      H18R           49.2311814878        6.2646570768       48.4174455407  MEMB      47              0.0000000000
      6317        53  POPC      H18S           49.9728456506        4.6892494961       48.8841129310  MEMB      47              0.0000000000
      6318        53  POPC      H18T           50.6437114304        5.6400506070       47.4989036330  MEMB      47              0.0000000000
      6319        53  POPC      C33            47.9805348195        4.0919104030       57.4937523600  MEMB      47              0.0000000000
      6320        53  POPC      H3X            49.0653315968        4.0700349225       57.2448730292  MEMB      47              0.0000000000
      6321        53  POPC      H3Y            47.5663166660        5.0599071067       57.1245462380  MEMB      47              0.0000000000
      6322        53  POPC      C34            47.2740291287        2.9513661119       56.7604114090  MEMB      47              0.0000000000
      6323        53  POPC      H4X            46.1931832770        3.0087426684       57.0151420338  MEMB      47              0.0000000000
      6324        53  POPC      H4Y            47.6653225489        1.9770130488       57.1287347875  MEMB      47              0.0000000000
      6325        53  POPC      C35            47.4339093791        3.0143736042       55.2369885042  MEMB      47              0.0000000000
      6326        53  POPC      H5X            48.5130254608        3.0021845235       54.9701031151  MEMB      47              0.0000000000
      6327        53  POPC      H5Y            47.0055474385        3.9723737329       54.8733910458  MEMB      47              0.0000000000
      6328        53  POPC      C36            46.7170817072        1.8455645042       54.5508205628  MEMB      47              0.0000000000
      6329        53  POPC      H6X            45.6365868963        1.9002095162       54.8054158447  MEMB      47              0.0000000000
      6330        53  POPC      H6Y            47.1235988197        0.8961078424       54.9705550442  MEMB      47              0.0000000000
      6331        53  POPC      C37            46.8653614492        1.7888761422       53.0228683463  MEMB      47              0.0000000000
      6332        53  POPC      H7X            46.6133838283        0.7473414118       52.7121453617  MEMB      47              0.0000000000
      6333        53  POPC      H7Y            47.9181937405        1.9776025327       52.7231544929  MEMB      47              0.0000000000
      6334        53  POPC      C38            45.9098167570        2.7185060480       52.2572965739  MEMB      47              0.0000000000
      6335        53  POPC      H8X            44.8986304309        2.7175601734       52.7125257470  MEMB      47              0.0000000000
      6336        53  POPC      H8Y            45.8079900873        2.3122950977       51.2281763555  MEMB      47              0.0000000000
      6337        53  POPC      C39            46.3817749222        4.1674896043       52.1697964993  MEMB      47              0.0000000000
      6338        53  POPC      H9X            47.4846665080        4.1906794302       52.3119580650  MEMB      47              0.0000000000
      6339        53  POPC      H9Y            45.9195463884        4.7443303551       53.0010516368  MEMB      47              0.0000000000
      6340        53  POPC      C310           46.0581727994        4.8364174444       50.8299425627  MEMB      47              0.0000000000
      6341        53  POPC      H10X           46.2703730765        5.9260465550       50.9173388188  MEMB      47              0.0000000000
      6342        53  POPC      H10Y           44.9777148852        4.7193170168       50.5984243353  MEMB      47              0.0000000000
      6343        53  POPC      C311           46.9197488737        4.2726940221       49.6943042311  MEMB      47              0.0000000000
      6344        53  POPC      H11X           46.6521160950        3.2137826180       49.4889935170  MEMB      47              0.0000000000
      6345        53  POPC      H11Y           47.9817398333        4.2845762321       50.0234813819  MEMB      47              0.0000000000
      6346        53  POPC      C312           46.8090657309        5.0786397953       48.4027146016  MEMB      47              0.0000000000
      6347        53  POPC      H12X           47.5592147966        4.6853176808       47.6769563352  MEMB      47              0.0000000000
      6348        53  POPC      H12Y           47.0536044607        6.1447022992       48.6107327081  MEMB      47              0.0000000000
      6349        53  POPC      C313           45.4278000211        4.9794099478       47.7620679307  MEMB      47              0.0000000000
      6350        53  POPC      H13X           44.6740245172        5.5019227056       48.3923203787  MEMB      47              0.0000000000
      6351        53  POPC      H13Y           45.1324092661        3.9064603025       47.7057035326  MEMB      47              0.0000000000
      6352        53  POPC      C314           45.4096627084        5.5686764610       46.3517124935  MEMB      47              0.0000000000
      6353        53  POPC      H14X           44.3773714650        5.4981542612       45.9602653123  MEMB      47              0.0000000000
      6354        53  POPC      H14Y           46.0608631062        4.9559423849       45.6894109174  MEMB      47              0.0000000000
      6355        53  POPC      C315           45.8522003551        7.0328344181       46.2718958043  MEMB      47              0.0000000000
      6356        53  POPC      H15X           46.9513128404        7.0871580108       46.4357987280  MEMB      47              0.0000000000
      6357        53  POPC      H15Y           45.3616267275        7.6138945486       47.0851836887  MEMB      47              0.0000000000
      6358        53  POPC      C316           45.5066973448        7.6554406022       44.9199530019  MEMB      47              0.0000000000
      6359        53  POPC      H16X           46.0285118305        8.6213965955       44.7689981298  MEMB      47              0.0000000000
      6360        53  POPC      H16Y           44.4110304765        7.8114778091       44.8239682324  MEMB      47              0.0000000000
      6361        53  POPC      H16Z           45.8038876805        6.9736952271       44.1058118372  MEMB      47              0.0000000000
      6362        54  POPC      N               4.0847272294       39.2565172569       65.4504482665  MEMB      48              0.0000000000
      6363        54  POPC      C12             3.6762930554       37.8203183355       65.1573203007  MEMB      48              0.0000000000
      6364        54  POPC      H12A            3.6313440563       37.2996573305       66.1013776249  MEMB      48              0.0000000000
      6365        54  POPC      H12B            4.4220990611       37.3307139938       64.5480795119  MEMB      48              0.0000000000
      6366        54  POPC      C13             3.0198638327       39.9175306924       66.2893437962  MEMB      48              0.0000000000
      6367        54  POPC      H13A            3.0364426125       40.9894242849       66.1470613121  MEMB      48              0.0000000000
      6368        54  POPC      H13B            2.0477200194       39.5689776831       65.9461451035  MEMB      48              0.0000000000
      6369        54  POPC      H13C            3.0788790376       39.6684323521       67.3434361640  MEMB      48              0.0000000000
      6370        54  POPC      C14             5.3310251720       39.3541994649       66.2539935667  MEMB      48              0.0000000000
      6371        54  POPC      H14A            6.2248733627       39.1899605894       65.6601621498  MEMB      48              0.0000000000
      6372        54  POPC      H14B            5.4523029953       40.3829133702       66.6078948019  MEMB      48              0.0000000000
      6373        54  POPC      H14C            5.3241890561       38.7248214536       67.1313275269  MEMB      48              0.0000000000
      6374        54  POPC      C15             4.2677861147       40.0851541944       64.2160388715  MEMB      48              0.0000000000
      6375        54  POPC      H15A            5.1161912118       39.7629281342       63.6135818245  MEMB      48              0.0000000000
      6376        54  POPC      H15B            4.5058058221       41.1212294236       64.4717462424  MEMB      48              0.0000000000
      6377        54  POPC      H15C            3.3795625927       40.0741805515       63.5955893102  MEMB      48              0.0000000000
      6378        54  POPC      C11             2.2884273576       37.5642557317       64.5188751455  MEMB      48              0.0000000000
      6379        54  POPC      H11A            2.1832295792       36.4681603258       64.3192761147  MEMB      48              0.0000000000
      6380        54  POPC      H11B            2.2536817895       38.0901262736       63.5423354465  MEMB      48              0.0000000000
      6381        54  POPC      P              -0.2693323524       37.6657332060       65.1163344014  MEMB      48              0.0000000000
      6382        54  POPC      O13            -1.1131440250       38.7410435083       65.6921811047  MEMB      48              0.0000000000
      6383        54  POPC      O14            -0.5359901800       36.3148336550       65.6581354771  MEMB      48              0.0000000000
      6384        54  POPC      O12             1.2475094041       38.0206847331       65.3825486529  MEMB      48              0.0000000000
      6385        54  POPC      O11            -0.2308168015       37.7570716021       63.5229471608  MEMB      48              0.0000000000
      6386        54  POPC      C1             -0.1108380589       39.0151362877       62.8305427738  MEMB      48              0.0000000000
      6387        54  POPC      HA              0.5840342957       39.7150582921       63.3489614340  MEMB      48              0.0000000000
      6388        54  POPC      HB             -1.1117313506       39.5010747019       62.8106041730  MEMB      48              0.0000000000
      6389        54  POPC      C2              0.4005735753       38.8959978323       61.3393923023  MEMB      48              0.0000000000
      6390        54  POPC      HS             -0.0683530452       37.9865920852       60.9025873207  MEMB      48              0.0000000000
      6391        54  POPC      O21             1.8481145255       38.8138888729       61.3043265709  MEMB      48              0.0000000000
      6392        54  POPC      C21             2.3902461370       38.3068057823       60.1900741755  MEMB      48              0.0000000000
      6393        54  POPC      O22             1.7955728848       37.7099533092       59.3135309225  MEMB      48              0.0000000000
      6394        54  POPC      C22             3.8907981808       38.6574925599       60.1857466742  MEMB      48              0.0000000000
      6395        54  POPC      H2R             4.2997081082       38.3402164278       61.1696099513  MEMB      48              0.0000000000
      6396        54  POPC      H2S             3.9820729337       39.7618227972       60.1201984753  MEMB      48              0.0000000000
      6397        54  POPC      C3             -0.0834681809       40.1414470741       60.5147214621  MEMB      48              0.0000000000
      6398        54  POPC      HX             -0.0521022863       40.9916467718       61.2312239792  MEMB      48              0.0000000000
      6399        54  POPC      HY             -1.1491838641       40.0068070530       60.2169947636  MEMB      48              0.0000000000
      6400        54  POPC      O31             0.7768031498       40.5014813287       59.4113617948  MEMB      48              0.0000000000
      6401        54  POPC      C31             0.4045477208       40.1604033624       58.1868995166  MEMB      48              0.0000000000
      6402        54  POPC      O32            -0.6039785486       39.5644302886       57.8650734243  MEMB      48              0.0000000000
      6403        54  POPC      C32             1.4239489485       40.8157405082       57.2404576060  MEMB      48              0.0000000000
      6404        54  POPC      H2X             2.4299539475       40.4369834965       57.5037111184  MEMB      48              0.0000000000
      6405        54  POPC      H2Y             1.4060299117       41.9055589798       57.4613121341  MEMB      48              0.0000000000
      6406        54  POPC      C23             4.7242625383       37.9848540488       59.0630518412  MEMB      48              0.0000000000
      6407        54  POPC      H3R             4.4774709229       36.9036227799       58.9793202185  MEMB      48              0.0000000000
      6408        54  POPC      H3S             5.7976298516       38.0599367783       59.3570802544  MEMB      48              0.0000000000
      6409        54  POPC      C24             4.5940123136       38.6537823962       57.6840382611  MEMB      48              0.0000000000
      6410        54  POPC      H4R             4.7538949772       39.7495009337       57.7952324635  MEMB      48              0.0000000000
      6411        54  POPC      H4S             3.5651081687       38.4901722794       57.2941577740  MEMB      48              0.0000000000
      6412        54  POPC      C25             5.6121619464       38.1011572647       56.6746993002  MEMB      48              0.0000000000
      6413        54  POPC      H5R             5.4109514107       37.0178925431       56.5133248904  MEMB      48              0.0000000000
      6414        54  POPC      H5S             6.6353944846       38.1866611238       57.1061094748  MEMB      48              0.0000000000
      6415        54  POPC      C26             5.6039050809       38.8077805514       55.3098778779  MEMB      48              0.0000000000
      6416        54  POPC      H6R             5.7762784319       39.8953779870       55.4493101574  MEMB      48              0.0000000000
      6417        54  POPC      H6S             4.6030011690       38.6884129243       54.8385516477  MEMB      48              0.0000000000
      6418        54  POPC      C27             6.6663359485       38.2247478211       54.3627248636  MEMB      48              0.0000000000
      6419        54  POPC      H7R             6.3945104513       37.1571439918       54.1871305553  MEMB      48              0.0000000000
      6420        54  POPC      H7S             7.6604038229       38.2289667187       54.8625701980  MEMB      48              0.0000000000
      6421        54  POPC      C28             6.7692229471       38.9664422308       53.0144108731  MEMB      48              0.0000000000
      6422        54  POPC      H8R             7.2837764735       39.9400001019       53.1720779184  MEMB      48              0.0000000000
      6423        54  POPC      H8S             5.7415982277       39.2102158891       52.6630301902  MEMB      48              0.0000000000
      6424        54  POPC      C29             7.5095604080       38.1229837764       52.0029669575  MEMB      48              0.0000000000
      6425        54  POPC      H91             8.5935940483       38.0320231650       52.1821054641  MEMB      48              0.0000000000
      6426        54  POPC      C210            6.9629774371       37.4536801194       50.9661276044  MEMB      48              0.0000000000
      6427        54  POPC      H101            7.6247044018       36.8585761236       50.3166727433  MEMB      48              0.0000000000
      6428        54  POPC      C211            5.4973834740       37.4058906096       50.5953507864  MEMB      48              0.0000000000
      6429        54  POPC      H11R            5.3666373572       36.8442760974       49.6434072331  MEMB      48              0.0000000000
      6430        54  POPC      H11S            5.1304690523       38.4394561258       50.4083522223  MEMB      48              0.0000000000
      6431        54  POPC      C212            4.5991104071       36.7413364778       51.6596262609  MEMB      48              0.0000000000
      6432        54  POPC      H12R            4.6410799512       37.3350890973       52.5993266912  MEMB      48              0.0000000000
      6433        54  POPC      H12S            4.9812368964       35.7229709427       51.8948518619  MEMB      48              0.0000000000
      6434        54  POPC      C213            3.1149695135       36.6259745264       51.2705199793  MEMB      48              0.0000000000
      6435        54  POPC      H13R            2.5659086537       36.3288167390       52.1883110641  MEMB      48              0.0000000000
      6436        54  POPC      H13S            2.9735948092       35.8190215765       50.5191118598  MEMB      48              0.0000000000
      6437        54  POPC      C214            2.4959580452       37.9274757384       50.7424675375  MEMB      48              0.0000000000
      6438        54  POPC      H14R            2.7435742023       38.0301017402       49.6642344461  MEMB      48              0.0000000000
      6439        54  POPC      H14S            2.9641868325       38.7837136404       51.2807147235  MEMB      48              0.0000000000
      6440        54  POPC      C215            0.9751123564       38.0295202702       50.9484546644  MEMB      48              0.0000000000
      6441        54  POPC      H15R            0.5895184979       38.9297298193       50.4369692327  MEMB      48              0.0000000000
      6442        54  POPC      H15S            0.7721187531       38.1717876124       52.0305420027  MEMB      48              0.0000000000
      6443        54  POPC      C216            0.1491974056       36.8485355227       50.4274183005  MEMB      48              0.0000000000
      6444        54  POPC      H16R           -0.9204027215       37.0553806086       50.6644836239  MEMB      48              0.0000000000
      6445        54  POPC      H16S            0.4431101649       35.9294520737       50.9757371935  MEMB      48              0.0000000000
      6446        54  POPC      C217            0.2727065257       36.6201731455       48.9159362772  MEMB      48              0.0000000000
      6447        54  POPC      H17R            0.9896431994       35.7889634494       48.7362434195  MEMB      48              0.0000000000
      6448        54  POPC      H17S            0.7157873723       37.5255846123       48.4503183043  MEMB      48              0.0000000000
      6449        54  POPC      C218           -1.0641084978       36.3221437881       48.2278630858  MEMB      48              0.0000000000
      6450        54  POPC      H18R           -1.7371245566       37.2047417205       48.2799403549  MEMB      48              0.0000000000
      6451        54  POPC      H18S           -1.5743333862       35.4695902275       48.7222557760  MEMB      48              0.0000000000
      6452        54  POPC      H18T           -0.8998221415       36.0680927664       47.1582319822  MEMB      48              0.0000000000
      6453        54  POPC      C33             1.1301632156       40.5999182756       55.7395936402  MEMB      48              0.0000000000
      6454        54  POPC      H3X             0.1040153388       40.9782591667       55.5229709800  MEMB      48              0.0000000000
      6455        54  POPC      H3Y             1.1596776411       39.5136368428       55.4952330213  MEMB      48              0.0000000000
      6456        54  POPC      C34             2.1140172501       41.3646229825       54.8420539291  MEMB      48              0.0000000000
      6457        54  POPC      H4X             3.1294624144       40.9196912861       54.9262829145  MEMB      48              0.0000000000
      6458        54  POPC      H4Y             2.1746940226       42.4127036025       55.2105091819  MEMB      48              0.0000000000
      6459        54  POPC      C35             1.6734732721       41.3928834318       53.3732076855  MEMB      48              0.0000000000
      6460        54  POPC      H5X             0.6178196196       41.7444408725       53.3288157964  MEMB      48              0.0000000000
      6461        54  POPC      H5Y             1.6977845803       40.3612741100       52.9582802294  MEMB      48              0.0000000000
      6462        54  POPC      C36             2.5329942259       42.3306631511       52.5127690887  MEMB      48              0.0000000000
      6463        54  POPC      H6X             3.5353563924       41.8710727452       52.3586012743  MEMB      48              0.0000000000
      6464        54  POPC      H6Y             2.6826746298       43.2839487684       53.0699229745  MEMB      48              0.0000000000
      6465        54  POPC      C37             1.8916991610       42.6750553028       51.1569275410  MEMB      48              0.0000000000
      6466        54  POPC      H7X             2.5701868960       43.3540401785       50.6093164234  MEMB      48              0.0000000000
      6467        54  POPC      H7Y             0.9540574824       43.2403869756       51.3372783276  MEMB      48              0.0000000000
      6468        54  POPC      C38             1.5561615306       41.4372742299       50.3175054288  MEMB      48              0.0000000000
      6469        54  POPC      H8X             0.7352148954       40.9085764287       50.8499212496  MEMB      48              0.0000000000
      6470        54  POPC      H8Y             2.4463229364       40.7692009136       50.2851698514  MEMB      48              0.0000000000
      6471        54  POPC      C39             1.0875007108       41.6962986197       48.8741887253  MEMB      48              0.0000000000
      6472        54  POPC      H9X             1.9226605908       42.0976415346       48.2695524521  MEMB      48              0.0000000000
      6473        54  POPC      H9Y             0.2737176524       42.4474060782       48.8676574678  MEMB      48              0.0000000000
      6474        54  POPC      C310            0.5778753465       40.4043340718       48.2198977856  MEMB      48              0.0000000000
      6475        54  POPC      H10X           -0.3767781967       40.1217326467       48.7189707178  MEMB      48              0.0000000000
      6476        54  POPC      H10Y            1.3123759845       39.5948465048       48.4198812949  MEMB      48              0.0000000000
      6477        54  POPC      C311            0.3476290337       40.4586472541       46.7029425380  MEMB      48              0.0000000000
      6478        54  POPC      H11X            1.3207236907       40.5448492389       46.1736146095  MEMB      48              0.0000000000
      6479        54  POPC      H11Y           -0.2478849031       41.3583011023       46.4524403162  MEMB      48              0.0000000000
      6480        54  POPC      C312           -0.4108187713       39.2040704641       46.2339041273  MEMB      48              0.0000000000
      6481        54  POPC      H12X           -1.3460206363       39.1478051906       46.8331532311  MEMB      48              0.0000000000
      6482        54  POPC      H12Y            0.1817593680       38.2975853972       46.4806155338  MEMB      48              0.0000000000
      6483        54  POPC      C313           -0.7816593278       39.1771512710       44.7435071676  MEMB      48              0.0000000000
      6484        54  POPC      H13X           -0.6460282666       40.1916784098       44.3069448128  MEMB      48              0.0000000000
      6485        54  POPC      H13Y           -1.8605371727       38.9122743450       44.6494283014  MEMB      48              0.0000000000
      6486        54  POPC      C314            0.0271737126       38.1564385833       43.9325748501  MEMB      48              0.0000000000
      6487        54  POPC      H14X           -0.3329346043       38.1761808161       42.8789430730  MEMB      48              0.0000000000
      6488        54  POPC      H14Y           -0.1536238822       37.1346343389       44.3359032475  MEMB      48              0.0000000000
      6489        54  POPC      C315            1.5262649360       38.4570521871       43.9592089770  MEMB      48              0.0000000000
      6490        54  POPC      H15X            1.9019459139       38.4016900622       45.0066319647  MEMB      48              0.0000000000
      6491        54  POPC      H15Y            1.6686588170       39.5038248773       43.6083267575  MEMB      48              0.0000000000
      6492        54  POPC      C316            2.3583971101       37.5203643126       43.0933204454  MEMB      48              0.0000000000
      6493        54  POPC      H16X            2.2385553119       36.4670846482       43.4268240019  MEMB      48              0.0000000000
      6494        54  POPC      H16Y            3.4345748970       37.7922280520       43.1694730149  MEMB      48              0.0000000000
      6495        54  POPC      H16Z            2.0486392131       37.5976069543       42.0292275360  MEMB      48              0.0000000000
      6496        55  POPS      N              48.0013483526       61.5172426786       66.7010780927  MEMB      49              0.0000000000
      6497        55  POPS      HN1            47.8753549595       62.5205126817       66.9800646069  MEMB      49              0.0000000000
      6498        55  POPS      HN2            47.2623603956       61.2696142604       65.9863159888  MEMB      49              0.0000000000
      6499        55  POPS      HN3            47.9806724919       60.8863472453       67.5208281895  MEMB      49              0.0000000000
      6500        55  POPS      C12            49.3280673843       61.5343535040       66.0074800809  MEMB      49              0.0000000000
      6501        55  POPS      H12A           49.9918659597       60.8610090894       66.5250727494  MEMB      49              0.0000000000
      6502        55  POPS      C13            49.9663953897       62.9335508365       66.0918713883  MEMB      49              0.0000000000
      6503        55  POPS      O13A           49.2776800058       63.8880857129       66.5570677685  MEMB      49              0.0000000000
      6504        55  POPS      O13B           51.1755745984       63.0777137614       65.7613120976  MEMB      49              0.0000000000
      6505        55  POPS      C11            49.1674195458       61.0802206570       64.5186903610  MEMB      49              0.0000000000
      6506        55  POPS      H11A           48.8277584473       60.0190455183       64.4878016422  MEMB      49              0.0000000000
      6507        55  POPS      H11B           50.1806461678       61.1059997342       64.0538095505  MEMB      49              0.0000000000
      6508        55  POPS      P              46.7773898212       61.6941793835       63.5198546624  MEMB      49              0.0000000000
      6509        55  POPS      O13            46.2930908053       60.9358886297       64.6972192344  MEMB      49              0.0000000000
      6510        55  POPS      O14            46.5665319196       61.0712435045       62.1999061102  MEMB      49              0.0000000000
      6511        55  POPS      O12            48.3137782871       61.9356256169       63.7615072915  MEMB      49              0.0000000000
      6512        55  POPS      O11            46.1681353305       63.1360410210       63.6254774447  MEMB      49              0.0000000000
      6513        55  POPS      C1             45.0753964039       63.5005405531       62.7809647966  MEMB      49              0.0000000000
      6514        55  POPS      HA             44.2777739368       63.8912526745       63.4379362782  MEMB      49              0.0000000000
      6515        55  POPS      HB             44.6085435550       62.6484662656       62.2301700515  MEMB      49              0.0000000000
      6516        55  POPS      C2             45.4344288622       64.6169065931       61.7564699769  MEMB      49              0.0000000000
      6517        55  POPS      HS             44.4680519717       64.9792977677       61.3288390661  MEMB      49              0.0000000000
      6518        55  POPS      O21            46.3089728409       64.1332729921       60.7059573732  MEMB      49              0.0000000000
      6519        55  POPS      C21            45.6826438117       63.3722025682       59.8022604175  MEMB      49              0.0000000000
      6520        55  POPS      O22            44.4813484416       63.1759108828       59.7594280069  MEMB      49              0.0000000000
      6521        55  POPS      C22            46.6521025165       62.9005172766       58.7200727949  MEMB      49              0.0000000000
      6522        55  POPS      H2R            47.1631602729       62.0011147233       59.1165630355  MEMB      49              0.0000000000
      6523        55  POPS      H2S            47.3931038931       63.7112885690       58.5653676553  MEMB      49              0.0000000000
      6524        55  POPS      C3             46.0902044301       65.8647619493       62.4453132971  MEMB      49              0.0000000000
      6525        55  POPS      HX             45.3534470867       66.2210926679       63.1967011287  MEMB      49              0.0000000000
      6526        55  POPS      HY             46.1692961673       66.6413441410       61.6635784498  MEMB      49              0.0000000000
      6527        55  POPS      O31            47.3505782480       65.6537452579       63.1221668327  MEMB      49              0.0000000000
      6528        55  POPS      C31            48.4348635850       65.9327113841       62.3970187294  MEMB      49              0.0000000000
      6529        55  POPS      O32            48.4347654578       66.4620149158       61.2932999565  MEMB      49              0.0000000000
      6530        55  POPS      C32            49.6890168050       65.4295998852       63.0961062956  MEMB      49              0.0000000000
      6531        55  POPS      H2X            49.4211493280       64.6902213513       63.8808758342  MEMB      49              0.0000000000
      6532        55  POPS      H2Y            50.1653292966       66.2996139927       63.5835834415  MEMB      49              0.0000000000
      6533        55  POPS      C23            45.9514924521       62.5770528962       57.3706234444  MEMB      49              0.0000000000
      6534        55  POPS      H3R            45.1834380909       63.3508785349       57.1670878671  MEMB      49              0.0000000000
      6535        55  POPS      H3S            45.4056537318       61.6115687971       57.4445124465  MEMB      49              0.0000000000
      6536        55  POPS      C24            46.9062689975       62.5566890013       56.1619347862  MEMB      49              0.0000000000
      6537        55  POPS      H4R            47.2498263958       61.5137485777       55.9902070114  MEMB      49              0.0000000000
      6538        55  POPS      H4S            47.8001320639       63.1802882854       56.3920283900  MEMB      49              0.0000000000
      6539        55  POPS      C25            46.2759598055       63.1168991183       54.8769619544  MEMB      49              0.0000000000
      6540        55  POPS      H5R            46.1672520858       64.2168215019       55.0037912978  MEMB      49              0.0000000000
      6541        55  POPS      H5S            45.2648247198       62.6713764206       54.7458989312  MEMB      49              0.0000000000
      6542        55  POPS      C26            47.0942109973       62.8768222490       53.5997801877  MEMB      49              0.0000000000
      6543        55  POPS      H6R            47.1334154429       61.7858965493       53.3924398830  MEMB      49              0.0000000000
      6544        55  POPS      H6S            48.1365644079       63.2252218806       53.7733070085  MEMB      49              0.0000000000
      6545        55  POPS      C27            46.5449923289       63.6301693030       52.3729554005  MEMB      49              0.0000000000
      6546        55  POPS      H7R            47.2057377793       63.4397351885       51.4969972345  MEMB      49              0.0000000000
      6547        55  POPS      H7S            46.6013529015       64.7213108468       52.5888624016  MEMB      49              0.0000000000
      6548        55  POPS      C28            45.0855556136       63.2989110285       51.9945686473  MEMB      49              0.0000000000
      6549        55  POPS      H8R            44.8056364326       63.9739485917       51.1566027302  MEMB      49              0.0000000000
      6550        55  POPS      H8S            44.4141362312       63.5399024276       52.8460901217  MEMB      49              0.0000000000
      6551        55  POPS      C29            44.9095519258       61.8692134519       51.5617722794  MEMB      49              0.0000000000
      6552        55  POPS      H91            45.7905359509       61.2232973043       51.7025493994  MEMB      49              0.0000000000
      6553        55  POPS      C210           43.8105839867       61.3375839117       50.9978612768  MEMB      49              0.0000000000
      6554        55  POPS      H101           43.8685720845       60.2995156827       50.6434527422  MEMB      49              0.0000000000
      6555        55  POPS      C211           42.5061660669       62.0154902090       50.6620008212  MEMB      49              0.0000000000
      6556        55  POPS      H11R           42.4586500515       63.0559606559       51.0554986028  MEMB      49              0.0000000000
      6557        55  POPS      H11S           41.6530998419       61.4510840046       51.1001729301  MEMB      49              0.0000000000
      6558        55  POPS      C212           42.3557272800       62.0519191343       49.1317400962  MEMB      49              0.0000000000
      6559        55  POPS      H12R           41.3302030336       62.3874505219       48.8597269328  MEMB      49              0.0000000000
      6560        55  POPS      H12S           42.4882548096       61.0303772954       48.7098792491  MEMB      49              0.0000000000
      6561        55  POPS      C213           43.3748216241       63.0110745652       48.5122631584  MEMB      49              0.0000000000
      6562        55  POPS      H13R           44.3288017633       62.9747261941       49.0781026842  MEMB      49              0.0000000000
      6563        55  POPS      H13S           42.9938586817       64.0447890616       48.6232867933  MEMB      49              0.0000000000
      6564        55  POPS      C214           43.7267243174       62.7355404894       47.0521122720  MEMB      49              0.0000000000
      6565        55  POPS      H14R           42.8175082800       62.8617738506       46.4249008833  MEMB      49              0.0000000000
      6566        55  POPS      H14S           44.0813426464       61.6885127356       46.9292242712  MEMB      49              0.0000000000
      6567        55  POPS      C215           44.8164103280       63.7102939401       46.5888418482  MEMB      49              0.0000000000
      6568        55  POPS      H15R           44.5459354155       64.7346663670       46.9210711150  MEMB      49              0.0000000000
      6569        55  POPS      H15S           44.8455631770       63.7306946508       45.4818976562  MEMB      49              0.0000000000
      6570        55  POPS      C216           46.2189773792       63.3705879108       47.1068552294  MEMB      49              0.0000000000
      6571        55  POPS      H16R           46.4446275701       62.3144900007       46.8357509869  MEMB      49              0.0000000000
      6572        55  POPS      H16S           46.2515391556       63.4495001584       48.2153919981  MEMB      49              0.0000000000
      6573        55  POPS      C217           47.2973692997       64.2819340679       46.5061368593  MEMB      49              0.0000000000
      6574        55  POPS      H17R           47.1675991283       64.2892419501       45.3999584277  MEMB      49              0.0000000000
      6575        55  POPS      H17S           48.2929388373       63.8383823513       46.7313972639  MEMB      49              0.0000000000
      6576        55  POPS      C218           47.2832813444       65.7272152059       47.0106633973  MEMB      49              0.0000000000
      6577        55  POPS      H18R           46.3377291809       66.2283876661       46.7211667820  MEMB      49              0.0000000000
      6578        55  POPS      H18S           48.1287465642       66.2971150768       46.5674691398  MEMB      49              0.0000000000
      6579        55  POPS      H18T           47.3758138250       65.7567949258       48.1170177823  MEMB      49              0.0000000000
      6580        55  POPS      C33            50.6402342821       64.7804692741       62.0645347905  MEMB      49              0.0000000000
      6581        55  POPS      H3X            51.6000965599       64.5615844071       62.5871912317  MEMB      49              0.0000000000
      6582        55  POPS      H3Y            50.8723333792       65.4801431302       61.2341528079  MEMB      49              0.0000000000
      6583        55  POPS      C34            50.0659235687       63.4648862965       61.5175410212  MEMB      49              0.0000000000
      6584        55  POPS      H4X            49.0751963469       63.3030140055       62.0023756998  MEMB      49              0.0000000000
      6585        55  POPS      H4Y            50.7076614815       62.6107818760       61.8205637201  MEMB      49              0.0000000000
      6586        55  POPS      C35            49.8040423899       63.4097880232       59.9981770443  MEMB      49              0.0000000000
      6587        55  POPS      H5X            49.2843567977       64.3317110139       59.6612769366  MEMB      49              0.0000000000
      6588        55  POPS      H5Y            49.1013266241       62.5567237175       59.8724986387  MEMB      49              0.0000000000
      6589        55  POPS      C36            51.0480991496       63.1274319990       59.1399930783  MEMB      49              0.0000000000
      6590        55  POPS      H6X            51.6546990632       62.3695741878       59.6766999871  MEMB      49              0.0000000000
      6591        55  POPS      H6Y            51.6650516863       64.0493184400       59.0714975653  MEMB      49              0.0000000000
      6592        55  POPS      C37            50.7645899878       62.5792198067       57.7238114682  MEMB      49              0.0000000000
      6593        55  POPS      H7X            51.7449552029       62.3270010333       57.2629054684  MEMB      49              0.0000000000
      6594        55  POPS      H7Y            50.3062303045       63.3850600190       57.1109070232  MEMB      49              0.0000000000
      6595        55  POPS      C38            49.8615626991       61.3301755902       57.6838940358  MEMB      49              0.0000000000
      6596        55  POPS      H8X            48.8144606763       61.6695572422       57.8007973237  MEMB      49              0.0000000000
      6597        55  POPS      H8Y            50.0704532900       60.6840952098       58.5646162341  MEMB      49              0.0000000000
      6598        55  POPS      C39            49.9692619761       60.4747460908       56.4036154133  MEMB      49              0.0000000000
      6599        55  POPS      H9X            49.0693587050       59.8238455386       56.3361267371  MEMB      49              0.0000000000
      6600        55  POPS      H9Y            50.8559427530       59.8095408374       56.4773820648  MEMB      49              0.0000000000
      6601        55  POPS      C310           50.1210406012       61.2885016003       55.1120330406  MEMB      49              0.0000000000
      6602        55  POPS      H10X           51.1639621574       61.6700881863       55.0642676590  MEMB      49              0.0000000000
      6603        55  POPS      H10Y           49.4532750670       62.1734668354       55.1493785607  MEMB      49              0.0000000000
      6604        55  POPS      C311           49.8238263006       60.5001469467       53.8247932383  MEMB      49              0.0000000000
      6605        55  POPS      H11X           48.7311702968       60.3022062413       53.7680304448  MEMB      49              0.0000000000
      6606        55  POPS      H11Y           50.3514961659       59.5210814063       53.8460689551  MEMB      49              0.0000000000
      6607        55  POPS      C312           50.2824539152       61.2899041638       52.5911697772  MEMB      49              0.0000000000
      6608        55  POPS      H12X           51.3721468357       61.1253976400       52.4488956626  MEMB      49              0.0000000000
      6609        55  POPS      H12Y           50.1328827755       62.3749930933       52.7978812876  MEMB      49              0.0000000000
      6610        55  POPS      C313           49.5479674979       60.9725342015       51.2817822821  MEMB      49              0.0000000000
      6611        55  POPS      H13X           48.4618025713       61.1671123933       51.4261382128  MEMB      49              0.0000000000
      6612        55  POPS      H13Y           49.6780428625       59.9019563790       51.0112714593  MEMB      49              0.0000000000
      6613        55  POPS      C314           50.0695449027       61.8713967861       50.1473982479  MEMB      49              0.0000000000
      6614        55  POPS      H14X           51.0688291410       61.5034201104       49.8240111130  MEMB      49              0.0000000000
      6615        55  POPS      H14Y           50.2112782687       62.8998648241       50.5528144659  MEMB      49              0.0000000000
      6616        55  POPS      C315           49.1378030291       61.9866755804       48.9327889004  MEMB      49              0.0000000000
      6617        55  POPS      H15X           49.6155682454       62.6850590151       48.2062626135  MEMB      49              0.0000000000
      6618        55  POPS      H15Y           48.1780068245       62.4494712234       49.2580897914  MEMB      49              0.0000000000
      6619        55  POPS      C316           48.8453556147       60.6670171687       48.2208953344  MEMB      49              0.0000000000
      6620        55  POPS      H16X           48.3309947011       59.9529855780       48.8996213413  MEMB      49              0.0000000000
      6621        55  POPS      H16Y           49.7942400464       60.2143927175       47.8696812037  MEMB      49              0.0000000000
      6622        55  POPS      H16Z           48.1963658528       60.8376307279       47.3353859663  MEMB      49              0.0000000000
      6623        56  POPS      N              40.8241307277       -0.9608430742       66.8957098588  MEMB      50              0.0000000000
      6624        56  POPS      HN1            40.9579826183       -0.1595287056       67.5436762728  MEMB      50              0.0000000000
      6625        56  POPS      HN2            40.7402947157       -1.8554047044       67.4199265009  MEMB      50              0.0000000000
      6626        56  POPS      HN3            41.6116696350       -1.0108884120       66.1949273735  MEMB      50              0.0000000000
      6627        56  POPS      C12            39.5287139462       -0.7597074404       66.1924126716  MEMB      50              0.0000000000
      6628        56  POPS      H12A           39.2303892487        0.2660005200       66.3235975955  MEMB      50              0.0000000000
      6629        56  POPS      C13            38.4436699767       -1.6325279663       66.8330406365  MEMB      50              0.0000000000
      6630        56  POPS      O13A           38.7386368771       -2.4466584581       67.7527190785  MEMB      50              0.0000000000
      6631        56  POPS      O13B           37.2582038983       -1.4559873002       66.4628640861  MEMB      50              0.0000000000
      6632        56  POPS      C11            39.6739501813       -0.9954664616       64.6673520681  MEMB      50              0.0000000000
      6633        56  POPS      H11A           38.6871791548       -0.8107505973       64.1881245486  MEMB      50              0.0000000000
      6634        56  POPS      H11B           39.9052332653       -2.0707935006       64.4721066194  MEMB      50              0.0000000000
      6635        56  POPS      P              42.0750773495       -0.6347683949       63.7607543292  MEMB      50              0.0000000000
      6636        56  POPS      O13            41.9631092302       -1.7030237175       62.7480739068  MEMB      50              0.0000000000
      6637        56  POPS      O14            42.7070321633       -0.9982049300       65.0639107994  MEMB      50              0.0000000000
      6638        56  POPS      O12            40.6321781585       -0.0764608105       64.1084362682  MEMB      50              0.0000000000
      6639        56  POPS      O11            42.8170413993        0.5740174186       63.0956609442  MEMB      50              0.0000000000
      6640        56  POPS      C1             43.2312618025        1.7845529230       63.7047317624  MEMB      50              0.0000000000
      6641        56  POPS      HA             44.2277104190        1.6491327395       64.1756346539  MEMB      50              0.0000000000
      6642        56  POPS      HB             42.5137191471        2.0870761635       64.5008923648  MEMB      50              0.0000000000
      6643        56  POPS      C2             43.2941472479        2.9433145405       62.6534029982  MEMB      50              0.0000000000
      6644        56  POPS      HS             43.0689898160        3.9014359319       63.1755474620  MEMB      50              0.0000000000
      6645        56  POPS      O21            42.3377762060        2.6942839765       61.6021323683  MEMB      50              0.0000000000
      6646        56  POPS      C21            41.0913488033        2.7583235604       62.0147201320  MEMB      50              0.0000000000
      6647        56  POPS      O22            40.7224725766        3.3433069966       63.0262965056  MEMB      50              0.0000000000
      6648        56  POPS      C22            40.1458735529        2.0411252100       61.0501099003  MEMB      50              0.0000000000
      6649        56  POPS      H2R            39.4958833646        2.8201477828       60.6146916794  MEMB      50              0.0000000000
      6650        56  POPS      H2S            39.5330381430        1.3441974615       61.6583892474  MEMB      50              0.0000000000
      6651        56  POPS      C3             44.7224752830        3.1429276865       62.0335011393  MEMB      50              0.0000000000
      6652        56  POPS      HX             45.4564972531        3.0911965395       62.8652538466  MEMB      50              0.0000000000
      6653        56  POPS      HY             44.8272979831        4.1596943677       61.6083495010  MEMB      50              0.0000000000
      6654        56  POPS      O31            45.0877263205        2.1485079023       61.0682723541  MEMB      50              0.0000000000
      6655        56  POPS      C31            44.5019094722        2.2241326666       59.8843499395  MEMB      50              0.0000000000
      6656        56  POPS      O32            43.8307023701        3.1508041233       59.4769561580  MEMB      50              0.0000000000
      6657        56  POPS      C32            44.6752201376        0.8916062062       59.1578561536  MEMB      50              0.0000000000
      6658        56  POPS      H2X            44.1248646115        0.1332176181       59.7558791965  MEMB      50              0.0000000000
      6659        56  POPS      H2Y            45.7509813899        0.6238063378       59.1551988735  MEMB      50              0.0000000000
      6660        56  POPS      C23            40.8237925108        1.2642657739       59.8994119784  MEMB      50              0.0000000000
      6661        56  POPS      H3R            41.5302753119        0.5055975004       60.3104356898  MEMB      50              0.0000000000
      6662        56  POPS      H3S            41.4141409325        1.9858415038       59.2888988579  MEMB      50              0.0000000000
      6663        56  POPS      C24            39.8088797179        0.5533774217       58.9876873577  MEMB      50              0.0000000000
      6664        56  POPS      H4R            38.8839215439        1.1615841676       58.9176559574  MEMB      50              0.0000000000
      6665        56  POPS      H4S            39.5281627955       -0.4253104914       59.4362352067  MEMB      50              0.0000000000
      6666        56  POPS      C25            40.3718072449        0.3528392712       57.5757755541  MEMB      50              0.0000000000
      6667        56  POPS      H5R            41.2555509838       -0.3190138156       57.6551327735  MEMB      50              0.0000000000
      6668        56  POPS      H5S            40.7239923206        1.3389311488       57.1939172890  MEMB      50              0.0000000000
      6669        56  POPS      C26            39.3816868676       -0.2272791211       56.5543800605  MEMB      50              0.0000000000
      6670        56  POPS      H6R            39.8345496089       -0.1649741661       55.5401836038  MEMB      50              0.0000000000
      6671        56  POPS      H6S            38.4637603083        0.3895357974       56.5352395763  MEMB      50              0.0000000000
      6672        56  POPS      C27            38.9846524503       -1.6814134450       56.8342915596  MEMB      50              0.0000000000
      6673        56  POPS      H7R            38.2208540221       -1.6647937451       57.6463086344  MEMB      50              0.0000000000
      6674        56  POPS      H7S            39.8623422429       -2.2452499243       57.2241009468  MEMB      50              0.0000000000
      6675        56  POPS      C28            38.3836573436       -2.3952026398       55.6034129324  MEMB      50              0.0000000000
      6676        56  POPS      H8R            37.7028878115       -1.6937162699       55.0709143114  MEMB      50              0.0000000000
      6677        56  POPS      H8S            37.7544955359       -3.2195307754       56.0100875788  MEMB      50              0.0000000000
      6678        56  POPS      C29            39.4252571923       -3.0011106202       54.6904244119  MEMB      50              0.0000000000
      6679        56  POPS      H91            40.1906754020       -3.5758742968       55.2336425946  MEMB      50              0.0000000000
      6680        56  POPS      C210           39.5298653253       -2.9415179706       53.3461187541  MEMB      50              0.0000000000
      6681        56  POPS      H101           40.3755469831       -3.4690374352       52.8781272054  MEMB      50              0.0000000000
      6682        56  POPS      C211           38.6396478479       -2.2503987376       52.3395121252  MEMB      50              0.0000000000
      6683        56  POPS      H11R           37.8458699533       -1.6357040855       52.8206573626  MEMB      50              0.0000000000
      6684        56  POPS      H11S           38.1204923641       -3.0144772030       51.7177860552  MEMB      50              0.0000000000
      6685        56  POPS      C212           39.4610173623       -1.3438339751       51.3945200677  MEMB      50              0.0000000000
      6686        56  POPS      H12R           40.4262832538       -1.8133455030       51.1022467104  MEMB      50              0.0000000000
      6687        56  POPS      H12S           39.6984307291       -0.4099113919       51.9543597736  MEMB      50              0.0000000000
      6688        56  POPS      C213           38.6990035918       -0.9404958890       50.1215818908  MEMB      50              0.0000000000
      6689        56  POPS      H13R           38.9779147564        0.1060804712       49.8564730352  MEMB      50              0.0000000000
      6690        56  POPS      H13S           37.6136271928       -0.9547766070       50.3562895097  MEMB      50              0.0000000000
      6691        56  POPS      C214           38.9786202341       -1.7980084376       48.8774493852  MEMB      50              0.0000000000
      6692        56  POPS      H14R           38.0733494115       -1.7775819772       48.2279870299  MEMB      50              0.0000000000
      6693        56  POPS      H14S           39.1691287279       -2.8533539047       49.1699199408  MEMB      50              0.0000000000
      6694        56  POPS      C215           40.1577074344       -1.2370021297       48.0672829036  MEMB      50              0.0000000000
      6695        56  POPS      H15R           41.0751559428       -1.3587898605       48.6832032540  MEMB      50              0.0000000000
      6696        56  POPS      H15S           40.0197617987       -0.1434946494       47.9087816318  MEMB      50              0.0000000000
      6697        56  POPS      C216           40.3629850852       -1.8936206705       46.6930602964  MEMB      50              0.0000000000
      6698        56  POPS      H16R           40.2143260655       -2.9918752196       46.7583663290  MEMB      50              0.0000000000
      6699        56  POPS      H16S           41.4209816077       -1.7181056129       46.3923713379  MEMB      50              0.0000000000
      6700        56  POPS      C217           39.4789739047       -1.2878369669       45.5951208835  MEMB      50              0.0000000000
      6701        56  POPS      H17R           39.5585523300       -0.1784704191       45.6627792799  MEMB      50              0.0000000000
      6702        56  POPS      H17S           38.4174422626       -1.5623904784       45.7839986637  MEMB      50              0.0000000000
      6703        56  POPS      C218           39.8822362583       -1.7053562046       44.1791117396  MEMB      50              0.0000000000
      6704        56  POPS      H18R           40.8958805608       -1.3197094691       43.9395249565  MEMB      50              0.0000000000
      6705        56  POPS      H18S           39.1691900472       -1.3038740613       43.4275844276  MEMB      50              0.0000000000
      6706        56  POPS      H18T           39.9087453556       -2.8098374952       44.0855115030  MEMB      50              0.0000000000
      6707        56  POPS      C33            44.0915862401        0.8961186110       57.7195105657  MEMB      50              0.0000000000
      6708        56  POPS      H3X            44.6331167401        1.6273360099       57.0856156723  MEMB      50              0.0000000000
      6709        56  POPS      H3Y            43.0259028678        1.2098081389       57.7471769891  MEMB      50              0.0000000000
      6710        56  POPS      C34            44.1992382834       -0.4942379103       57.0822262379  MEMB      50              0.0000000000
      6711        56  POPS      H4X            43.5134628074       -1.1908636093       57.6175500684  MEMB      50              0.0000000000
      6712        56  POPS      H4Y            45.2439073882       -0.8408783798       57.2569808318  MEMB      50              0.0000000000
      6713        56  POPS      C35            43.9481449175       -0.5639644324       55.5629427986  MEMB      50              0.0000000000
      6714        56  POPS      H5X            44.1445998921       -1.6072007186       55.2320432583  MEMB      50              0.0000000000
      6715        56  POPS      H5Y            44.6722583270        0.0892924275       55.0404200333  MEMB      50              0.0000000000
      6716        56  POPS      C36            42.5215142261       -0.2450920551       55.1056998541  MEMB      50              0.0000000000
      6717        56  POPS      H6X            42.2155308377        0.7597611262       55.4694056215  MEMB      50              0.0000000000
      6718        56  POPS      H6Y            41.8614608524       -1.0113209949       55.5732249478  MEMB      50              0.0000000000
      6719        56  POPS      C37            42.3331747646       -0.3044033038       53.5777031123  MEMB      50              0.0000000000
      6720        56  POPS      H7X            41.2432191074       -0.2860122832       53.3671085883  MEMB      50              0.0000000000
      6721        56  POPS      H7Y            42.7398758884       -1.2601645258       53.1815888514  MEMB      50              0.0000000000
      6722        56  POPS      C38            42.9939583146        0.8838910890       52.8691374527  MEMB      50              0.0000000000
      6723        56  POPS      H8X            44.0824748695        0.8475925590       53.0831664477  MEMB      50              0.0000000000
      6724        56  POPS      H8Y            42.5909709763        1.8142799929       53.3318311878  MEMB      50              0.0000000000
      6725        56  POPS      C39            42.7808431709        0.9761708204       51.3451404328  MEMB      50              0.0000000000
      6726        56  POPS      H9X            42.8416106617        2.0575081112       51.0763688897  MEMB      50              0.0000000000
      6727        56  POPS      H9Y            41.7674419059        0.6225506936       51.0615163103  MEMB      50              0.0000000000
      6728        56  POPS      C310           43.8586046618        0.2515474846       50.5202812359  MEMB      50              0.0000000000
      6729        56  POPS      H10X           43.5431951956       -0.7954913928       50.3267608544  MEMB      50              0.0000000000
      6730        56  POPS      H10Y           44.7957238043        0.2076461300       51.1210569375  MEMB      50              0.0000000000
      6731        56  POPS      C311           44.2131827273        0.9563186592       49.1964970308  MEMB      50              0.0000000000
      6732        56  POPS      H11X           45.1837024333        0.5438521104       48.8356833699  MEMB      50              0.0000000000
      6733        56  POPS      H11Y           44.3628445410        2.0441069399       49.3743230367  MEMB      50              0.0000000000
      6734        56  POPS      C312           43.1768996928        0.7495310757       48.0849540743  MEMB      50              0.0000000000
      6735        56  POPS      H12X           42.1828265453        1.1275755611       48.4077650945  MEMB      50              0.0000000000
      6736        56  POPS      H12Y           43.0704498811       -0.3379707778       47.8959960418  MEMB      50              0.0000000000
      6737        56  POPS      C313           43.5770332456        1.4203110525       46.7644385877  MEMB      50              0.0000000000
      6738        56  POPS      H13X           44.6667730382        1.3030961731       46.5898259581  MEMB      50              0.0000000000
      6739        56  POPS      H13Y           43.3892284937        2.5111147122       46.8669839882  MEMB      50              0.0000000000
      6740        56  POPS      C314           42.7971040692        0.8713008891       45.5566236089  MEMB      50              0.0000000000
      6741        56  POPS      H14X           42.5495087548        1.7139003052       44.8881933210  MEMB      50              0.0000000000
      6742        56  POPS      H14Y           41.8241410001        0.4559026220       45.8912872709  MEMB      50              0.0000000000
      6743        56  POPS      C315           43.5587957201       -0.1613547678       44.7091681560  MEMB      50              0.0000000000
      6744        56  POPS      H15X           43.1785429626       -1.1722663949       44.9756169026  MEMB      50              0.0000000000
      6745        56  POPS      H15Y           44.6406884927       -0.1347261352       44.9702279063  MEMB      50              0.0000000000
      6746        56  POPS      C316           43.4271999943        0.0398613955       43.1954836928  MEMB      50              0.0000000000
      6747        56  POPS      H16X           42.3604940933        0.1197980282       42.8972394109  MEMB      50              0.0000000000
      6748        56  POPS      H16Y           43.8867676798       -0.8148075275       42.6531226834  MEMB      50              0.0000000000
      6749        56  POPS      H16Z           43.9545653091        0.9651135007       42.8811642562  MEMB      50              0.0000000000
      6750        57  POPS      N              65.1581870362       24.2708074293       66.4028175744  MEMB      51              0.0000000000
      6751        57  POPS      HN1            64.2814186874       24.2419062172       66.9711071085  MEMB      51              0.0000000000
      6752        57  POPS      HN2            65.7066035171       23.3903352647       66.5375940148  MEMB      51              0.0000000000
      6753        57  POPS      HN3            65.7081614231       25.1111092402       66.6419757707  MEMB      51              0.0000000000
      6754        57  POPS      C12            64.7503637087       24.2889282701       64.9680139726  MEMB      51              0.0000000000
      6755        57  POPS      H12A           65.5464502416       24.7232923585       64.3810531839  MEMB      51              0.0000000000
      6756        57  POPS      C13            63.4840135565       25.1096850480       64.7124675767  MEMB      51              0.0000000000
      6757        57  POPS      O13A           62.9770264867       25.7170350166       65.6893543507  MEMB      51              0.0000000000
      6758        57  POPS      O13B           63.0103136080       25.1499785681       63.5548940562  MEMB      51              0.0000000000
      6759        57  POPS      C11            64.5529863977       22.8169724460       64.5779458556  MEMB      51              0.0000000000
      6760        57  POPS      H11A           64.2999911831       22.7383573986       63.4964912586  MEMB      51              0.0000000000
      6761        57  POPS      H11B           63.6882464081       22.3975852014       65.1509659594  MEMB      51              0.0000000000
      6762        57  POPS      P              65.7975330849       20.5684284853       64.6712393119  MEMB      51              0.0000000000
      6763        57  POPS      O13            64.6391062158       19.9665595920       65.3569736592  MEMB      51              0.0000000000
      6764        57  POPS      O14            67.1022872069       20.0709947386       65.1069295509  MEMB      51              0.0000000000
      6765        57  POPS      O12            65.7734773703       22.1320740212       64.8808687386  MEMB      51              0.0000000000
      6766        57  POPS      O11            65.5748346069       20.4013059205       63.1284141048  MEMB      51              0.0000000000
      6767        57  POPS      C1             66.4971691218       20.5066807296       62.0608733882  MEMB      51              0.0000000000
      6768        57  POPS      HA             66.0925175921       19.9122287013       61.2090622337  MEMB      51              0.0000000000
      6769        57  POPS      HB             67.4706530145       20.0450766592       62.3252234213  MEMB      51              0.0000000000
      6770        57  POPS      C2             66.6766099288       21.9673355083       61.5478256613  MEMB      51              0.0000000000
      6771        57  POPS      HS             67.1375623789       22.5521911483       62.3705559695  MEMB      51              0.0000000000
      6772        57  POPS      O21            65.4045276805       22.5149172322       61.1833710116  MEMB      51              0.0000000000
      6773        57  POPS      C21            65.2462403788       23.8208455686       61.3302172585  MEMB      51              0.0000000000
      6774        57  POPS      O22            66.0017830882       24.5536661816       61.9528666835  MEMB      51              0.0000000000
      6775        57  POPS      C22            64.0313484733       24.2651747094       60.5086428083  MEMB      51              0.0000000000
      6776        57  POPS      H2R            63.1927751712       24.4478557048       61.2119698095  MEMB      51              0.0000000000
      6777        57  POPS      H2S            63.7413755848       23.4438467488       59.8225033041  MEMB      51              0.0000000000
      6778        57  POPS      C3             67.5889938958       22.0163561019       60.2933426150  MEMB      51              0.0000000000
      6779        57  POPS      HX             68.5826139888       21.5870008723       60.5344331287  MEMB      51              0.0000000000
      6780        57  POPS      HY             67.7268596066       23.0889234675       60.0148118241  MEMB      51              0.0000000000
      6781        57  POPS      O31            66.9704328847       21.2653438625       59.2285357892  MEMB      51              0.0000000000
      6782        57  POPS      C31            67.4857539543       21.5041232949       58.0272775941  MEMB      51              0.0000000000
      6783        57  POPS      O32            68.4857119533       22.1633241269       57.8143043279  MEMB      51              0.0000000000
      6784        57  POPS      C32            66.6067542916       20.8476792667       56.9587125078  MEMB      51              0.0000000000
      6785        57  POPS      H2X            66.1695651241       21.6778406729       56.3673177057  MEMB      51              0.0000000000
      6786        57  POPS      H2Y            65.7754223172       20.2968499729       57.4480125428  MEMB      51              0.0000000000
      6787        57  POPS      C23            64.3235855105       25.5471077151       59.6989065141  MEMB      51              0.0000000000
      6788        57  POPS      H3R            65.1197998755       25.3605522004       58.9468801498  MEMB      51              0.0000000000
      6789        57  POPS      H3S            64.6965212129       26.3298551808       60.3997270612  MEMB      51              0.0000000000
      6790        57  POPS      C24            63.0864607049       26.1293645305       59.0049007351  MEMB      51              0.0000000000
      6791        57  POPS      H4R            63.3485388187       27.1255706340       58.5956795850  MEMB      51              0.0000000000
      6792        57  POPS      H4S            62.3096849632       26.2927985599       59.7865640880  MEMB      51              0.0000000000
      6793        57  POPS      C25            62.4868235111       25.2755722814       57.8761006268  MEMB      51              0.0000000000
      6794        57  POPS      H5R            61.5760184961       25.8010691414       57.5175609619  MEMB      51              0.0000000000
      6795        57  POPS      H5S            62.1775509560       24.2902732557       58.2887678492  MEMB      51              0.0000000000
      6796        57  POPS      C26            63.3661756874       25.0613391402       56.6345421587  MEMB      51              0.0000000000
      6797        57  POPS      H6R            62.7600002046       24.4727707276       55.9056003833  MEMB      51              0.0000000000
      6798        57  POPS      H6S            64.2616134191       24.4540817074       56.8882098247  MEMB      51              0.0000000000
      6799        57  POPS      C27            63.7977762521       26.3636467045       55.9385132249  MEMB      51              0.0000000000
      6800        57  POPS      H7R            64.6915585107       26.7839121071       56.4500076092  MEMB      51              0.0000000000
      6801        57  POPS      H7S            62.9776665611       27.1122521506       56.0348450902  MEMB      51              0.0000000000
      6802        57  POPS      C28            64.0770947370       26.1819433458       54.4350974691  MEMB      51              0.0000000000
      6803        57  POPS      H8R            64.4286236779       27.1526476722       54.0182413334  MEMB      51              0.0000000000
      6804        57  POPS      H8S            63.1074654240       25.9676185420       53.9388479543  MEMB      51              0.0000000000
      6805        57  POPS      C29            65.0978563637       25.1099328860       54.1504544085  MEMB      51              0.0000000000
      6806        57  POPS      H91            66.0976092689       25.3002538922       54.5691059534  MEMB      51              0.0000000000
      6807        57  POPS      C210           64.8992566880       23.9518558644       53.4947920736  MEMB      51              0.0000000000
      6808        57  POPS      H101           65.7701518581       23.3068724125       53.3142755669  MEMB      51              0.0000000000
      6809        57  POPS      C211           63.6187910596       23.4393274179       52.8884669194  MEMB      51              0.0000000000
      6810        57  POPS      H11R           62.7334837783       23.9738794349       53.2923552944  MEMB      51              0.0000000000
      6811        57  POPS      H11S           63.4827105287       22.3710143587       53.1691435256  MEMB      51              0.0000000000
      6812        57  POPS      C212           63.5954057625       23.5413960668       51.3514156066  MEMB      51              0.0000000000
      6813        57  POPS      H12R           62.6625804827       23.0435967141       50.9968451075  MEMB      51              0.0000000000
      6814        57  POPS      H12S           64.4512459151       22.9888832711       50.9048887464  MEMB      51              0.0000000000
      6815        57  POPS      C213           63.5918840002       24.9900160215       50.8423663811  MEMB      51              0.0000000000
      6816        57  POPS      H13R           64.5721350075       25.4781733718       51.0380414157  MEMB      51              0.0000000000
      6817        57  POPS      H13S           62.8315647865       25.5606650322       51.4192385658  MEMB      51              0.0000000000
      6818        57  POPS      C214           63.2302549890       25.1002096472       49.3564193099  MEMB      51              0.0000000000
      6819        57  POPS      H14R           62.6951146677       26.0630236215       49.1953109248  MEMB      51              0.0000000000
      6820        57  POPS      H14S           62.5301708070       24.2854662642       49.0712386798  MEMB      51              0.0000000000
      6821        57  POPS      C215           64.4579698807       25.0970707899       48.4425943248  MEMB      51              0.0000000000
      6822        57  POPS      H15R           65.0392823726       24.1603999078       48.5855646448  MEMB      51              0.0000000000
      6823        57  POPS      H15S           65.1077067025       25.9518330708       48.7422273314  MEMB      51              0.0000000000
      6824        57  POPS      C216           64.0810361569       25.2634405959       46.9666890058  MEMB      51              0.0000000000
      6825        57  POPS      H16R           63.3446243615       26.0959486469       46.8815442171  MEMB      51              0.0000000000
      6826        57  POPS      H16S           63.5894753519       24.3359707443       46.5993155014  MEMB      51              0.0000000000
      6827        57  POPS      C217           65.2816020377       25.6010669366       46.0765632739  MEMB      51              0.0000000000
      6828        57  POPS      H17R           65.7964774777       26.4951055329       46.4917469192  MEMB      51              0.0000000000
      6829        57  POPS      H17S           64.9022361946       25.8829445920       45.0716083883  MEMB      51              0.0000000000
      6830        57  POPS      C218           66.2895900958       24.4650943613       45.9261264310  MEMB      51              0.0000000000
      6831        57  POPS      H18R           65.7927586413       23.5538036604       45.5388495266  MEMB      51              0.0000000000
      6832        57  POPS      H18S           66.7570327272       24.2118623677       46.9002414074  MEMB      51              0.0000000000
      6833        57  POPS      H18T           67.0936340034       24.7538747477       45.2156100777  MEMB      51              0.0000000000
      6834        57  POPS      C33            67.3920569448       19.8822932372       56.0360308260  MEMB      51              0.0000000000
      6835        57  POPS      H3X            67.6619982002       18.9675102605       56.6135969346  MEMB      51              0.0000000000
      6836        57  POPS      H3Y            68.3437903927       20.3526105136       55.6959631826  MEMB      51              0.0000000000
      6837        57  POPS      C34            66.5973518571       19.4575012005       54.7894809441  MEMB      51              0.0000000000
      6838        57  POPS      H4X            65.5802152618       19.1210950243       55.0916597889  MEMB      51              0.0000000000
      6839        57  POPS      H4Y            67.1116388959       18.5854365584       54.3232834544  MEMB      51              0.0000000000
      6840        57  POPS      C35            66.5022729962       20.5891295733       53.7568418357  MEMB      51              0.0000000000
      6841        57  POPS      H5X            67.5293660012       20.8534351786       53.4178672737  MEMB      51              0.0000000000
      6842        57  POPS      H5Y            66.0788798464       21.4851656009       54.2580763745  MEMB      51              0.0000000000
      6843        57  POPS      C36            65.6241512007       20.2795363121       52.5356317230  MEMB      51              0.0000000000
      6844        57  POPS      H6X            65.6880770657       21.1460090102       51.8411418033  MEMB      51              0.0000000000
      6845        57  POPS      H6Y            64.5642442205       20.1994193183       52.8600397028  MEMB      51              0.0000000000
      6846        57  POPS      C37            66.0019812763       18.9972600916       51.7821340801  MEMB      51              0.0000000000
      6847        57  POPS      H7X            65.7765342563       18.1184142715       52.4276498590  MEMB      51              0.0000000000
      6848        57  POPS      H7Y            67.0881040190       18.9911168163       51.5679465972  MEMB      51              0.0000000000
      6849        57  POPS      C38            65.2637859492       18.8378461904       50.4458892970  MEMB      51              0.0000000000
      6850        57  POPS      H8X            64.1808192194       18.9967151781       50.6100242132  MEMB      51              0.0000000000
      6851        57  POPS      H8Y            65.4077015290       17.7863089591       50.1089565682  MEMB      51              0.0000000000
      6852        57  POPS      C39            65.7834136983       19.7876472716       49.3530153802  MEMB      51              0.0000000000
      6853        57  POPS      H9X            66.8702890739       19.6023500516       49.2424416211  MEMB      51              0.0000000000
      6854        57  POPS      H9Y            65.6751768157       20.8431395056       49.6867931433  MEMB      51              0.0000000000
      6855        57  POPS      C310           65.0879777254       19.6559663535       47.9822307096  MEMB      51              0.0000000000
      6856        57  POPS      H10X           65.7152428476       20.1464460741       47.2061564601  MEMB      51              0.0000000000
      6857        57  POPS      H10Y           64.1339030542       20.2273766570       48.0304861445  MEMB      51              0.0000000000
      6858        57  POPS      C311           64.7625012864       18.2223693267       47.5294921110  MEMB      51              0.0000000000
      6859        57  POPS      H11X           64.2120311400       18.2506480745       46.5628838952  MEMB      51              0.0000000000
      6860        57  POPS      H11Y           64.0693045784       17.7699936495       48.2748743975  MEMB      51              0.0000000000
      6861        57  POPS      C312           65.9825792073       17.3000804507       47.3735140434  MEMB      51              0.0000000000
      6862        57  POPS      H12X           65.6123552299       16.2621979418       47.5078707859  MEMB      51              0.0000000000
      6863        57  POPS      H12Y           66.7188800462       17.4774910672       48.1845041375  MEMB      51              0.0000000000
      6864        57  POPS      C313           66.6646065754       17.3863338414       45.9964638146  MEMB      51              0.0000000000
      6865        57  POPS      H13X           67.7430345977       17.6100361351       46.1215603338  MEMB      51              0.0000000000
      6866        57  POPS      H13Y           66.1979309940       18.2159189484       45.4227708911  MEMB      51              0.0000000000
      6867        57  POPS      C314           66.5602615828       16.0728130356       45.2174294111  MEMB      51              0.0000000000
      6868        57  POPS      H14X           65.4807508760       15.8390839694       45.1175592106  MEMB      51              0.0000000000
      6869        57  POPS      H14Y           67.0688711545       15.2810732948       45.8107691933  MEMB      51              0.0000000000
      6870        57  POPS      C315           67.1725582586       16.0310155471       43.8212117398  MEMB      51              0.0000000000
      6871        57  POPS      H15X           66.7033514401       15.1833806316       43.2719406154  MEMB      51              0.0000000000
      6872        57  POPS      H15Y           68.2503797358       15.8091896354       43.9077833852  MEMB      51              0.0000000000
      6873        57  POPS      C316           66.9672897276       17.2989849278       43.0231637650  MEMB      51              0.0000000000
      6874        57  POPS      H16X           65.8976169786       17.5384121736       43.0673894082  MEMB      51              0.0000000000
      6875        57  POPS      H16Y           67.2664068784       17.1666941344       41.9644289975  MEMB      51              0.0000000000
      6876        57  POPS      H16Z           67.5152846874       18.1627182551       43.4474379398  MEMB      51              0.0000000000
      6877        58  POPC      N              12.3659522061       61.0325007433       66.1295397424  MEMB      52              0.0000000000
      6878        58  POPC      C12            12.2466776442       60.9333416943       64.6101581859  MEMB      52              0.0000000000
      6879        58  POPC      H12A           12.2059063791       61.9266169424       64.1852593637  MEMB      52              0.0000000000
      6880        58  POPC      H12B           11.2857354339       60.4733989068       64.3777460463  MEMB      52              0.0000000000
      6881        58  POPC      C13            13.6914698737       61.5833057858       66.5385913581  MEMB      52              0.0000000000
      6882        58  POPC      H13A           13.7059965328       61.7852920774       67.6071386902  MEMB      52              0.0000000000
      6883        58  POPC      H13B           14.4742288665       60.8818589373       66.2820734824  MEMB      52              0.0000000000
      6884        58  POPC      H13C           13.8859190844       62.5389893295       66.0671149973  MEMB      52              0.0000000000
      6885        58  POPC      C14            11.2634346489       61.8963558371       66.6419202785  MEMB      52              0.0000000000
      6886        58  POPC      H14A           11.1350136022       61.8101042905       67.7150796492  MEMB      52              0.0000000000
      6887        58  POPC      H14B           11.4177783036       62.9370231315       66.3938439794  MEMB      52              0.0000000000
      6888        58  POPC      H14C           10.3127857266       61.6019917370       66.1936877232  MEMB      52              0.0000000000
      6889        58  POPC      C15            12.1826426661       59.6633549520       66.7103428533  MEMB      52              0.0000000000
      6890        58  POPC      H15A           11.1881458067       59.2879642582       66.5098767874  MEMB      52              0.0000000000
      6891        58  POPC      H15B           12.3543838072       59.6361710167       67.7757766216  MEMB      52              0.0000000000
      6892        58  POPC      H15C           12.8607660470       58.9725307342       66.2005190162  MEMB      52              0.0000000000
      6893        58  POPC      C11            13.3083764829       60.0961961186       63.8478694347  MEMB      52              0.0000000000
      6894        58  POPC      H11A           14.3173571894       60.5233626915       64.0386075641  MEMB      52              0.0000000000
      6895        58  POPC      H11B           13.1470769616       60.1997455740       62.7483775957  MEMB      52              0.0000000000
      6896        58  POPC      P              12.2786524838       57.6959676031       63.5582105498  MEMB      52              0.0000000000
      6897        58  POPC      O13            11.9891315814       56.6171319519       64.5355866424  MEMB      52              0.0000000000
      6898        58  POPC      O14            12.8260193597       57.2941663868       62.2444375821  MEMB      52              0.0000000000
      6899        58  POPC      O12            13.2946344639       58.7213703348       64.2382002713  MEMB      52              0.0000000000
      6900        58  POPC      O11            10.9935991487       58.6142819507       63.4272276056  MEMB      52              0.0000000000
      6901        58  POPC      C1              9.7030357734       58.0768525405       63.1793801601  MEMB      52              0.0000000000
      6902        58  POPC      HA              8.9896368117       58.6398883474       63.8180943268  MEMB      52              0.0000000000
      6903        58  POPC      HB              9.6160860231       57.0110619793       63.4959089182  MEMB      52              0.0000000000
      6904        58  POPC      C2              9.2319961431       58.2689536463       61.6976308577  MEMB      52              0.0000000000
      6905        58  POPC      HS              8.1542020222       57.9878203518       61.6618751508  MEMB      52              0.0000000000
      6906        58  POPC      O21             9.9685498574       57.4574363571       60.7619476592  MEMB      52              0.0000000000
      6907        58  POPC      C21             9.8198950352       56.1440345898       60.9047013110  MEMB      52              0.0000000000
      6908        58  POPC      O22             9.0373549867       55.5849111429       61.6574658187  MEMB      52              0.0000000000
      6909        58  POPC      C22            10.6533659371       55.4302100644       59.8481854722  MEMB      52              0.0000000000
      6910        58  POPC      H2R            10.8978776693       54.4202285754       60.2326818668  MEMB      52              0.0000000000
      6911        58  POPC      H2S            11.5971734819       56.0026283836       59.7344288953  MEMB      52              0.0000000000
      6912        58  POPC      C3              9.3136458664       59.7794168818       61.2462360336  MEMB      52              0.0000000000
      6913        58  POPC      HX              8.9069861261       60.3691789399       62.0929472413  MEMB      52              0.0000000000
      6914        58  POPC      HY              8.6323350656       59.8925737506       60.3746615470  MEMB      52              0.0000000000
      6915        58  POPC      O31            10.6200143843       60.2484787797       60.8546911406  MEMB      52              0.0000000000
      6916        58  POPC      C31            10.9438250309       61.5306329443       61.0716834298  MEMB      52              0.0000000000
      6917        58  POPC      O32            10.2822979144       62.3224712381       61.7150851713  MEMB      52              0.0000000000
      6918        58  POPC      C32            12.2507002995       61.8490903585       60.3464622204  MEMB      52              0.0000000000
      6919        58  POPC      H2X            13.0884741206       61.7413373708       61.0622907551  MEMB      52              0.0000000000
      6920        58  POPC      H2Y            12.1904741951       62.9095460904       60.0249141276  MEMB      52              0.0000000000
      6921        58  POPC      C23             9.8841651556       55.3351072295       58.5097944551  MEMB      52              0.0000000000
      6922        58  POPC      H3R             9.5002438739       56.3405181911       58.2191798670  MEMB      52              0.0000000000
      6923        58  POPC      H3S             9.0084248825       54.6616252698       58.6578564251  MEMB      52              0.0000000000
      6924        58  POPC      C24            10.7538449862       54.7929631277       57.3713163559  MEMB      52              0.0000000000
      6925        58  POPC      H4R            10.0977114552       54.4189888918       56.5529624362  MEMB      52              0.0000000000
      6926        58  POPC      H4S            11.3411052510       53.9352609288       57.7654162009  MEMB      52              0.0000000000
      6927        58  POPC      C25            11.7040240249       55.8468958664       56.7804550121  MEMB      52              0.0000000000
      6928        58  POPC      H5R            12.2286011697       56.3842910918       57.6047459963  MEMB      52              0.0000000000
      6929        58  POPC      H5S            11.1056432215       56.5992195140       56.2201578515  MEMB      52              0.0000000000
      6930        58  POPC      C26            12.7562033885       55.2125910665       55.8658321659  MEMB      52              0.0000000000
      6931        58  POPC      H6R            12.2664884435       54.5045715115       55.1594622280  MEMB      52              0.0000000000
      6932        58  POPC      H6S            13.4552420954       54.6265744615       56.5033015682  MEMB      52              0.0000000000
      6933        58  POPC      C27            13.6010730409       56.2172547367       55.0706224891  MEMB      52              0.0000000000
      6934        58  POPC      H7R            14.4575154828       55.6485695687       54.6383121154  MEMB      52              0.0000000000
      6935        58  POPC      H7S            14.0110949896       56.9890707266       55.7585713321  MEMB      52              0.0000000000
      6936        58  POPC      C28            12.8350266963       56.8769270676       53.9144408356  MEMB      52              0.0000000000
      6937        58  POPC      H8R            12.0119426966       57.5063442910       54.3199819104  MEMB      52              0.0000000000
      6938        58  POPC      H8S            12.3465837852       56.0681664957       53.3290945391  MEMB      52              0.0000000000
      6939        58  POPC      C29            13.7474497090       57.7092675890       53.0474378124  MEMB      52              0.0000000000
      6940        58  POPC      H91            13.9628288222       58.7184714456       53.4327805794  MEMB      52              0.0000000000
      6941        58  POPC      C210           14.2962606727       57.3354388926       51.8778491539  MEMB      52              0.0000000000
      6942        58  POPC      H101           14.9383947047       58.0512550249       51.3412001274  MEMB      52              0.0000000000
      6943        58  POPC      C211           14.1221311994       56.0085421157       51.1845732435  MEMB      52              0.0000000000
      6944        58  POPC      H11R           13.9035163871       55.1937478488       51.9103610203  MEMB      52              0.0000000000
      6945        58  POPC      H11S           15.0791633682       55.7320004292       50.6891701659  MEMB      52              0.0000000000
      6946        58  POPC      C212           13.0103384850       56.0272359741       50.1152282349  MEMB      52              0.0000000000
      6947        58  POPC      H12R           13.1886396656       55.1947262572       49.4077025017  MEMB      52              0.0000000000
      6948        58  POPC      H12S           13.0527697029       56.9621450202       49.5165668345  MEMB      52              0.0000000000
      6949        58  POPC      C213           11.6080495020       55.8307779384       50.7072923819  MEMB      52              0.0000000000
      6950        58  POPC      H13R           11.3422098066       56.7327211927       51.2942243155  MEMB      52              0.0000000000
      6951        58  POPC      H13S           11.6272777328       54.9815999853       51.4255819711  MEMB      52              0.0000000000
      6952        58  POPC      C214           10.5021811414       55.5574288339       49.6760948158  MEMB      52              0.0000000000
      6953        58  POPC      H14R            9.5340760268       55.7531653974       50.1792646032  MEMB      52              0.0000000000
      6954        58  POPC      H14S           10.5120166454       54.4847858258       49.3853627010  MEMB      52              0.0000000000
      6955        58  POPC      C215           10.5878776432       56.4036791636       48.3991828964  MEMB      52              0.0000000000
      6956        58  POPC      H15R           11.4298935957       56.0254638159       47.7781037155  MEMB      52              0.0000000000
      6957        58  POPC      H15S           10.8185012276       57.4542440221       48.6649965875  MEMB      52              0.0000000000
      6958        58  POPC      C216            9.2909449459       56.3564512765       47.5795173152  MEMB      52              0.0000000000
      6959        58  POPC      H16R            8.8378537756       55.3458800958       47.6883738450  MEMB      52              0.0000000000
      6960        58  POPC      H16S            9.5262556223       56.5004506717       46.5023357533  MEMB      52              0.0000000000
      6961        58  POPC      C217            8.2805750593       57.4335966127       47.9996920230  MEMB      52              0.0000000000
      6962        58  POPC      H17R            8.3485642369       57.5981906411       49.0985306933  MEMB      52              0.0000000000
      6963        58  POPC      H17S            7.2529217066       57.0602922141       47.7930066392  MEMB      52              0.0000000000
      6964        58  POPC      C218            8.4722590697       58.7578076136       47.2551132087  MEMB      52              0.0000000000
      6965        58  POPC      H18R            9.5170229004       59.1155237930       47.3578217673  MEMB      52              0.0000000000
      6966        58  POPC      H18S            7.7994594597       59.5445186834       47.6558624276  MEMB      52              0.0000000000
      6967        58  POPC      H18T            8.2589086604       58.6298914487       46.1724340681  MEMB      52              0.0000000000
      6968        58  POPC      C33            12.4669244918       60.9283374788       59.1210580735  MEMB      52              0.0000000000
      6969        58  POPC      H3X            11.5199057698       60.8739813516       58.5382530921  MEMB      52              0.0000000000
      6970        58  POPC      H3Y            12.6999818677       59.8938374129       59.4640430062  MEMB      52              0.0000000000
      6971        58  POPC      C34            13.5787002799       61.4098449203       58.1835600211  MEMB      52              0.0000000000
      6972        58  POPC      H4X            14.5174454693       61.5149032041       58.7769367505  MEMB      52              0.0000000000
      6973        58  POPC      H4Y            13.3167533217       62.4138520920       57.7839803456  MEMB      52              0.0000000000
      6974        58  POPC      C35            13.8416870323       60.4404938852       57.0180619200  MEMB      52              0.0000000000
      6975        58  POPC      H5X            14.2902143932       59.5096642677       57.4394307880  MEMB      52              0.0000000000
      6976        58  POPC      H5Y            14.5949041057       60.8959324164       56.3389283047  MEMB      52              0.0000000000
      6977        58  POPC      C36            12.6072468622       60.0183417565       56.2000778612  MEMB      52              0.0000000000
      6978        58  POPC      H6X            11.9612965876       59.3673635540       56.8320015512  MEMB      52              0.0000000000
      6979        58  POPC      H6Y            12.9622314269       59.3911855068       55.3539297654  MEMB      52              0.0000000000
      6980        58  POPC      C37            11.7521992859       61.1657978076       55.6371264374  MEMB      52              0.0000000000
      6981        58  POPC      H7X            12.3929813076       61.8761914294       55.0712279987  MEMB      52              0.0000000000
      6982        58  POPC      H7Y            11.2976653451       61.7258567341       56.4846055604  MEMB      52              0.0000000000
      6983        58  POPC      C38            10.6247193996       60.6476517271       54.7239013342  MEMB      52              0.0000000000
      6984        58  POPC      H8X             9.7685940575       61.3565501680       54.7541187874  MEMB      52              0.0000000000
      6985        58  POPC      H8Y            10.2686795088       59.6713382598       55.1219023983  MEMB      52              0.0000000000
      6986        58  POPC      C39            11.0726234781       60.4909671639       53.2620084193  MEMB      52              0.0000000000
      6987        58  POPC      H9X            12.0510835751       59.9638017064       53.2520614898  MEMB      52              0.0000000000
      6988        58  POPC      H9Y            11.2348486865       61.5009335262       52.8253609482  MEMB      52              0.0000000000
      6989        58  POPC      C310           10.0971372433       59.6905010943       52.3830644167  MEMB      52              0.0000000000
      6990        58  POPC      H10X            9.1510311694       60.2563724630       52.2405771625  MEMB      52              0.0000000000
      6991        58  POPC      H10Y            9.8501176787       58.7419578332       52.9124338641  MEMB      52              0.0000000000
      6992        58  POPC      C311           10.7024992709       59.3194953429       51.0142450402  MEMB      52              0.0000000000
      6993        58  POPC      H11X           10.0384707572       58.5868705835       50.5046623148  MEMB      52              0.0000000000
      6994        58  POPC      H11Y           11.6814779138       58.8255206027       51.1972493993  MEMB      52              0.0000000000
      6995        58  POPC      C312           10.9206914945       60.5193362619       50.0856743482  MEMB      52              0.0000000000
      6996        58  POPC      H12X           11.4011814546       61.3344193693       50.6649315569  MEMB      52              0.0000000000
      6997        58  POPC      H12Y            9.9258438604       60.8702243882       49.7335968108  MEMB      52              0.0000000000
      6998        58  POPC      C313           11.8147753136       60.2631442479       48.8635693342  MEMB      52              0.0000000000
      6999        58  POPC      H13X           11.7448027411       61.1621107668       48.2115652391  MEMB      52              0.0000000000
      7000        58  POPC      H13Y           11.4427441254       59.3983481022       48.2806151896  MEMB      52              0.0000000000
      7001        58  POPC      C314           13.2935453783       60.0532618621       49.2136534986  MEMB      52              0.0000000000
      7002        58  POPC      H14X           13.4016510924       59.1606609318       49.8650479973  MEMB      52              0.0000000000
      7003        58  POPC      H14Y           13.6531003847       60.9367000965       49.7877129329  MEMB      52              0.0000000000
      7004        58  POPC      C315           14.1598373497       59.8696172308       47.9624945111  MEMB      52              0.0000000000
      7005        58  POPC      H15X           13.9798995100       60.7337419495       47.2861120451  MEMB      52              0.0000000000
      7006        58  POPC      H15Y           13.8259469159       58.9544284769       47.4208797814  MEMB      52              0.0000000000
      7007        58  POPC      C316           15.6540526117       59.7666750505       48.2711173762  MEMB      52              0.0000000000
      7008        58  POPC      H16X           16.2470990538       59.7178684219       47.3333470431  MEMB      52              0.0000000000
      7009        58  POPC      H16Y           15.8605942487       58.8535486551       48.8686456161  MEMB      52              0.0000000000
      7010        58  POPC      H16Z           15.9958038509       60.6480614218       48.8544068746  MEMB      52              0.0000000000
      7011        59  POPC      N               7.7067044251       13.1415025293       65.5598217403  MEMB      53              0.0000000000
      7012        59  POPC      C12             7.8522846559       12.2558290725       64.3110520653  MEMB      53              0.0000000000
      7013        59  POPC      H12A            8.9092865994       12.0979458226       64.0983905744  MEMB      53              0.0000000000
      7014        59  POPC      H12B            7.4205316464       12.7444720946       63.4517947900  MEMB      53              0.0000000000
      7015        59  POPC      C13             8.4396136565       12.4940555851       66.6916829718  MEMB      53              0.0000000000
      7016        59  POPC      H13A            9.5162338862       12.5688216459       66.5868337897  MEMB      53              0.0000000000
      7017        59  POPC      H13B            8.1511599147       12.8830268265       67.6591118664  MEMB      53              0.0000000000
      7018        59  POPC      H13C            8.2280284165       11.4212172860       66.7055714644  MEMB      53              0.0000000000
      7019        59  POPC      C14             8.2757034143       14.5068058566       65.3426714335  MEMB      53              0.0000000000
      7020        59  POPC      H14A            8.2435719265       15.0613614205       66.2797941076  MEMB      53              0.0000000000
      7021        59  POPC      H14B            9.3131705338       14.4409287141       65.0367387332  MEMB      53              0.0000000000
      7022        59  POPC      H14C            7.7056242604       15.0501380980       64.5970061568  MEMB      53              0.0000000000
      7023        59  POPC      C15             6.2631073717       13.2634936627       65.9818712859  MEMB      53              0.0000000000
      7024        59  POPC      H15A            5.6226082603       13.6597008009       65.1984626651  MEMB      53              0.0000000000
      7025        59  POPC      H15B            6.1647590626       13.9098031579       66.8479884125  MEMB      53              0.0000000000
      7026        59  POPC      H15C            5.8897842292       12.2780148065       66.2555524129  MEMB      53              0.0000000000
      7027        59  POPC      C11             7.2790361731       10.8168406848       64.3575295240  MEMB      53              0.0000000000
      7028        59  POPC      H11A            7.2796393838       10.3783952993       63.3282449018  MEMB      53              0.0000000000
      7029        59  POPC      H11B            6.2168207417       10.8334643509       64.6851308163  MEMB      53              0.0000000000
      7030        59  POPC      P               9.3338241903        9.2191308352       64.8485263303  MEMB      53              0.0000000000
      7031        59  POPC      O13             8.9495599511        8.0922652437       63.9772442894  MEMB      53              0.0000000000
      7032        59  POPC      O14            10.0586202909        8.9083041987       66.1014213529  MEMB      53              0.0000000000
      7033        59  POPC      O12             8.0273320954       10.0230035027       65.2611964204  MEMB      53              0.0000000000
      7034        59  POPC      O11            10.1200516783       10.3173237554       64.0002366264  MEMB      53              0.0000000000
      7035        59  POPC      C1             10.4056087051       10.1316396602       62.6113864339  MEMB      53              0.0000000000
      7036        59  POPC      HA              9.5827961185        9.6122890265       62.0607983709  MEMB      53              0.0000000000
      7037        59  POPC      HB             11.3224084451        9.5103258836       62.5135254140  MEMB      53              0.0000000000
      7038        59  POPC      C2             10.6464414544       11.5193641754       61.9629594757  MEMB      53              0.0000000000
      7039        59  POPC      HS             10.9050599005       12.2143214570       62.7881558478  MEMB      53              0.0000000000
      7040        59  POPC      O21             9.4216060252       11.9216036924       61.3142155279  MEMB      53              0.0000000000
      7041        59  POPC      C21             9.4094652040       13.0544374054       60.6375619734  MEMB      53              0.0000000000
      7042        59  POPC      O22            10.3432409173       13.8160373733       60.4765317292  MEMB      53              0.0000000000
      7043        59  POPC      C22             7.9681125986       13.3652265018       60.2404473153  MEMB      53              0.0000000000
      7044        59  POPC      H2R             7.5093944604       13.9218704210       61.0837571899  MEMB      53              0.0000000000
      7045        59  POPC      H2S             7.4004857771       12.4210847839       60.0973581523  MEMB      53              0.0000000000
      7046        59  POPC      C3             11.8528122930       11.5167198826       60.9770330087  MEMB      53              0.0000000000
      7047        59  POPC      HX             12.6622631530       10.8910177951       61.4148793187  MEMB      53              0.0000000000
      7048        59  POPC      HY             12.2380802905       12.5619960776       60.9132222365  MEMB      53              0.0000000000
      7049        59  POPC      O31            11.4834842970       11.0382446718       59.6774104862  MEMB      53              0.0000000000
      7050        59  POPC      C31            12.4235382505       11.2872901969       58.7725711747  MEMB      53              0.0000000000
      7051        59  POPC      O32            13.5045187987       11.8034262090       58.9885233423  MEMB      53              0.0000000000
      7052        59  POPC      C32            11.9845267998       10.6216316997       57.4824048001  MEMB      53              0.0000000000
      7053        59  POPC      H2X            10.9106211281       10.8413238266       57.3134743929  MEMB      53              0.0000000000
      7054        59  POPC      H2Y            12.0935713985        9.5282614252       57.6557140984  MEMB      53              0.0000000000
      7055        59  POPC      C23             7.9311903199       14.2303810842       58.9683013199  MEMB      53              0.0000000000
      7056        59  POPC      H3R             8.5119900629       15.1701632776       59.1136538779  MEMB      53              0.0000000000
      7057        59  POPC      H3S             6.8751449917       14.5159987254       58.7505912538  MEMB      53              0.0000000000
      7058        59  POPC      C24             8.4935212292       13.4572171924       57.7729025697  MEMB      53              0.0000000000
      7059        59  POPC      H4R             7.9517674407       12.4896802353       57.7029272232  MEMB      53              0.0000000000
      7060        59  POPC      H4S             9.5704570705       13.2241689511       57.9431724268  MEMB      53              0.0000000000
      7061        59  POPC      C25             8.3852666289       14.2156418512       56.4486122905  MEMB      53              0.0000000000
      7062        59  POPC      H5R             9.0144943552       15.1335566921       56.5145841541  MEMB      53              0.0000000000
      7063        59  POPC      H5S             7.3345539204       14.5380962858       56.2741202094  MEMB      53              0.0000000000
      7064        59  POPC      C26             8.8566242521       13.3583972927       55.2685447063  MEMB      53              0.0000000000
      7065        59  POPC      H6R             9.8857423367       12.9897036650       55.4732698091  MEMB      53              0.0000000000
      7066        59  POPC      H6S             8.8872654162       13.9894119906       54.3522260616  MEMB      53              0.0000000000
      7067        59  POPC      C27             7.9674495065       12.1392201584       55.0110566076  MEMB      53              0.0000000000
      7068        59  POPC      H7R             6.9064027262       12.4693001581       54.9342180493  MEMB      53              0.0000000000
      7069        59  POPC      H7S             8.0472334412       11.4476589429       55.8804121704  MEMB      53              0.0000000000
      7070        59  POPC      C28             8.3695087341       11.3922495139       53.7305489586  MEMB      53              0.0000000000
      7071        59  POPC      H8R             9.4584267602       11.1659728635       53.7675466698  MEMB      53              0.0000000000
      7072        59  POPC      H8S             8.2113689870       12.0638569766       52.8584103278  MEMB      53              0.0000000000
      7073        59  POPC      C29             7.5829676769       10.1127680340       53.6387477521  MEMB      53              0.0000000000
      7074        59  POPC      H91             7.7214647227        9.4312387437       54.4931904824  MEMB      53              0.0000000000
      7075        59  POPC      C210            6.7388983601        9.7507592117       52.6640317610  MEMB      53              0.0000000000
      7076        59  POPC      H101            6.2143675323        8.7896554338       52.7623349014  MEMB      53              0.0000000000
      7077        59  POPC      C211            6.3832647253       10.5425379419       51.4346318331  MEMB      53              0.0000000000
      7078        59  POPC      H11R            7.1726181292       11.2674464058       51.1385725836  MEMB      53              0.0000000000
      7079        59  POPC      H11S            5.4646622205       11.1348990151       51.6546506212  MEMB      53              0.0000000000
      7080        59  POPC      C212            6.0631807658        9.6341557672       50.2347818237  MEMB      53              0.0000000000
      7081        59  POPC      H12R            5.4557896167       10.2255508042       49.5122944010  MEMB      53              0.0000000000
      7082        59  POPC      H12S            5.4446475805        8.7742431077       50.5687590517  MEMB      53              0.0000000000
      7083        59  POPC      C213            7.2663431621        9.0702402587       49.4733801722  MEMB      53              0.0000000000
      7084        59  POPC      H13R            7.7980462890        8.3437960166       50.1254349140  MEMB      53              0.0000000000
      7085        59  POPC      H13S            7.9762213772        9.8899636410       49.2319103067  MEMB      53              0.0000000000
      7086        59  POPC      C214            6.8205225424        8.3823268275       48.1686511142  MEMB      53              0.0000000000
      7087        59  POPC      H14R            6.5888649284        9.1643882454       47.4131095999  MEMB      53              0.0000000000
      7088        59  POPC      H14S            5.8759895044        7.8257213102       48.3666275169  MEMB      53              0.0000000000
      7089        59  POPC      C215            7.8396076352        7.3843514840       47.5952534386  MEMB      53              0.0000000000
      7090        59  POPC      H15R            7.4362221816        6.9143918229       46.6718512142  MEMB      53              0.0000000000
      7091        59  POPC      H15S            7.9602589661        6.5737265489       48.3423349421  MEMB      53              0.0000000000
      7092        59  POPC      C216            9.2214475096        7.9852442772       47.3074225399  MEMB      53              0.0000000000
      7093        59  POPC      H16R            9.9725061499        7.1659049332       47.2344972336  MEMB      53              0.0000000000
      7094        59  POPC      H16S            9.5305919022        8.6300769817       48.1596066536  MEMB      53              0.0000000000
      7095        59  POPC      C217            9.2744546627        8.7984181682       46.0092220736  MEMB      53              0.0000000000
      7096        59  POPC      H17R            8.3234881753        9.3609241537       45.8777268351  MEMB      53              0.0000000000
      7097        59  POPC      H17S            9.3652324563        8.0988574910       45.1466951965  MEMB      53              0.0000000000
      7098        59  POPC      C218           10.4355337425        9.7914532714       46.0100548388  MEMB      53              0.0000000000
      7099        59  POPC      H18R           11.4030980566        9.2676125029       46.1659451806  MEMB      53              0.0000000000
      7100        59  POPC      H18S           10.2952416272       10.5283478904       46.8264739509  MEMB      53              0.0000000000
      7101        59  POPC      H18T           10.4793113067       10.3554422856       45.0575568220  MEMB      53              0.0000000000
      7102        59  POPC      C33            12.8058009971       11.0053351373       56.2372003473  MEMB      53              0.0000000000
      7103        59  POPC      H3X            13.8971668736       10.9114277317       56.4442137956  MEMB      53              0.0000000000
      7104        59  POPC      H3Y            12.5990402729       12.0557710665       55.9350273258  MEMB      53              0.0000000000
      7105        59  POPC      C34            12.4362671380       10.0444222451       55.1066995397  MEMB      53              0.0000000000
      7106        59  POPC      H4X            11.3474136434       10.1264022742       54.8938135563  MEMB      53              0.0000000000
      7107        59  POPC      H4Y            12.6354220205        9.0117419515       55.4767713052  MEMB      53              0.0000000000
      7108        59  POPC      C35            13.2244033537       10.2379072691       53.8171308372  MEMB      53              0.0000000000
      7109        59  POPC      H5X            13.7313803935        9.2755129322       53.5700835957  MEMB      53              0.0000000000
      7110        59  POPC      H5Y            14.0074219625       11.0134840566       53.9716563173  MEMB      53              0.0000000000
      7111        59  POPC      C36            12.3560029737       10.6267498339       52.6187369130  MEMB      53              0.0000000000
      7112        59  POPC      H6X            12.0188517240       11.6784216901       52.7621292777  MEMB      53              0.0000000000
      7113        59  POPC      H6Y            11.4455454510        9.9903189439       52.5654242595  MEMB      53              0.0000000000
      7114        59  POPC      C37            13.1484827513       10.4894237552       51.3154556170  MEMB      53              0.0000000000
      7115        59  POPC      H7X            13.1712180139        9.4355174700       50.9679349492  MEMB      53              0.0000000000
      7116        59  POPC      H7Y            14.1993728094       10.7840862141       51.5188408954  MEMB      53              0.0000000000
      7117        59  POPC      C38            12.6556823640       11.4214100352       50.2133570142  MEMB      53              0.0000000000
      7118        59  POPC      H8X            13.4728924666       11.5467306130       49.4675203216  MEMB      53              0.0000000000
      7119        59  POPC      H8Y            12.4768001155       12.4165690279       50.6735448482  MEMB      53              0.0000000000
      7120        59  POPC      C39            11.4144744761       10.9109097619       49.4796080646  MEMB      53              0.0000000000
      7121        59  POPC      H9X            11.0723749428        9.9532701742       49.9329186708  MEMB      53              0.0000000000
      7122        59  POPC      H9Y            11.7027460488       10.6912079324       48.4281547288  MEMB      53              0.0000000000
      7123        59  POPC      C310           10.2432627096       11.9007362171       49.4880856198  MEMB      53              0.0000000000
      7124        59  POPC      H10X            9.8224551426       11.9524859269       50.5185288343  MEMB      53              0.0000000000
      7125        59  POPC      H10Y            9.4435214144       11.5045492129       48.8219585038  MEMB      53              0.0000000000
      7126        59  POPC      C311           10.5930133193       13.3285967483       49.0321877254  MEMB      53              0.0000000000
      7127        59  POPC      H11X           11.2416320590       13.8220756380       49.7807855195  MEMB      53              0.0000000000
      7128        59  POPC      H11Y            9.6456950750       13.9036655124       49.0263884583  MEMB      53              0.0000000000
      7129        59  POPC      C312           11.2762385894       13.4210965402       47.6575950433  MEMB      53              0.0000000000
      7130        59  POPC      H12X           10.7445749524       12.7587066629       46.9417785390  MEMB      53              0.0000000000
      7131        59  POPC      H12Y           12.3169513063       13.0436547644       47.7360381601  MEMB      53              0.0000000000
      7132        59  POPC      C313           11.2787672260       14.8490202678       47.0780548730  MEMB      53              0.0000000000
      7133        59  POPC      H13X           11.7054654026       14.8106173609       46.0541772068  MEMB      53              0.0000000000
      7134        59  POPC      H13Y           11.9185942424       15.5124470280       47.6974095020  MEMB      53              0.0000000000
      7135        59  POPC      C314            9.8621890869       15.4271482528       47.0076666963  MEMB      53              0.0000000000
      7136        59  POPC      H14X            9.5599124825       15.8081676173       48.0081579337  MEMB      53              0.0000000000
      7137        59  POPC      H14Y            9.1909319871       14.5802964545       46.7535833251  MEMB      53              0.0000000000
      7138        59  POPC      C315            9.6043586086       16.5066210571       45.9592575103  MEMB      53              0.0000000000
      7139        59  POPC      H15X           10.0111368243       16.1812490026       44.9750679703  MEMB      53              0.0000000000
      7140        59  POPC      H15Y           10.1071046584       17.4539881316       46.2444228959  MEMB      53              0.0000000000
      7141        59  POPC      C316            8.1019978170       16.7501320792       45.8338424445  MEMB      53              0.0000000000
      7142        59  POPC      H16X            7.8824130419       17.6466361766       45.2274677256  MEMB      53              0.0000000000
      7143        59  POPC      H16Y            7.6452070178       16.8948430704       46.8365960364  MEMB      53              0.0000000000
      7144        59  POPC      H16Z            7.6178492133       15.8753171572       45.3495979161  MEMB      53              0.0000000000
      7145        60  POPC      N               7.6424474693       52.1114810098       65.4444798010  MEMB      54              0.0000000000
      7146        60  POPC      C12             6.8553154049       51.9982370646       64.1384113158  MEMB      54              0.0000000000
      7147        60  POPC      H12A            7.3864660779       51.3537655281       63.4586536703  MEMB      54              0.0000000000
      7148        60  POPC      H12B            6.8258269840       52.9838516604       63.6835990987  MEMB      54              0.0000000000
      7149        60  POPC      C13             7.0151786070       53.1527644392       66.3101451076  MEMB      54              0.0000000000
      7150        60  POPC      H13A            7.3319690991       54.1470465360       66.0205695839  MEMB      54              0.0000000000
      7151        60  POPC      H13B            5.9350877935       53.0779286079       66.2460218689  MEMB      54              0.0000000000
      7152        60  POPC      H13C            7.3208290320       53.0324438700       67.3497397222  MEMB      54              0.0000000000
      7153        60  POPC      C14             7.6862002074       50.8315392142       66.2244731556  MEMB      54              0.0000000000
      7154        60  POPC      H14A            6.6761310141       50.5172106464       66.4760350902  MEMB      54              0.0000000000
      7155        60  POPC      H14B            8.2119796128       50.0603409107       65.6743461619  MEMB      54              0.0000000000
      7156        60  POPC      H14C            8.2517473793       50.9900014867       67.1482382520  MEMB      54              0.0000000000
      7157        60  POPC      C15             9.0518781340       52.5457822599       65.1669855660  MEMB      54              0.0000000000
      7158        60  POPC      H15A            9.5443398320       52.8584922173       66.0909440816  MEMB      54              0.0000000000
      7159        60  POPC      H15B            9.0996191124       53.3650005989       64.4648919718  MEMB      54              0.0000000000
      7160        60  POPC      H15C            9.6713414427       51.7193015374       64.8225942710  MEMB      54              0.0000000000
      7161        60  POPC      C11             5.3780677876       51.5238866712       64.1656548952  MEMB      54              0.0000000000
      7162        60  POPC      H11A            5.3022474268       50.6366502986       64.8368027166  MEMB      54              0.0000000000
      7163        60  POPC      H11B            5.1015907202       51.1855573475       63.1383516982  MEMB      54              0.0000000000
      7164        60  POPC      P               3.0240380120       52.1816781607       64.9605928987  MEMB      54              0.0000000000
      7165        60  POPC      O13             2.2625262257       53.3059578033       65.5454817399  MEMB      54              0.0000000000
      7166        60  POPC      O14             3.1066602156       51.0324957224       65.8880676984  MEMB      54              0.0000000000
      7167        60  POPC      O12             4.5041472517       52.5920082705       64.5564835422  MEMB      54              0.0000000000
      7168        60  POPC      O11             2.3131616767       51.7500477135       63.5840887358  MEMB      54              0.0000000000
      7169        60  POPC      C1              2.5006827859       52.6502086317       62.4666263903  MEMB      54              0.0000000000
      7170        60  POPC      HA              3.5779654365       52.8630961933       62.2598005216  MEMB      54              0.0000000000
      7171        60  POPC      HB              1.9975858093       53.6209075654       62.6881561847  MEMB      54              0.0000000000
      7172        60  POPC      C2              1.8953993250       52.1142097336       61.1289798124  MEMB      54              0.0000000000
      7173        60  POPC      HS              0.9930943397       51.5219113960       61.4084633821  MEMB      54              0.0000000000
      7174        60  POPC      O21             2.8563666376       51.2967322439       60.4212920414  MEMB      54              0.0000000000
      7175        60  POPC      C21             2.3120730281       50.4806566925       59.5066439331  MEMB      54              0.0000000000
      7176        60  POPC      O22             1.1197336004       50.3716467515       59.2923018611  MEMB      54              0.0000000000
      7177        60  POPC      C22             3.3986924577       49.6315468648       58.8516435659  MEMB      54              0.0000000000
      7178        60  POPC      H2R             3.9111346845       50.2724035371       58.1062714848  MEMB      54              0.0000000000
      7179        60  POPC      H2S             2.8930548368       48.7993114590       58.3192409303  MEMB      54              0.0000000000
      7180        60  POPC      C3              1.4379161688       53.2949700822       60.2160563168  MEMB      54              0.0000000000
      7181        60  POPC      HX              0.7780888880       53.9473583585       60.8275741604  MEMB      54              0.0000000000
      7182        60  POPC      HY              0.7916778165       52.9008865515       59.3969502055  MEMB      54              0.0000000000
      7183        60  POPC      O31             2.5669452086       54.0800449166       59.7463382164  MEMB      54              0.0000000000
      7184        60  POPC      C31             2.9843399903       53.7509253185       58.5124314620  MEMB      54              0.0000000000
      7185        60  POPC      O32             2.4226031654       52.9738230764       57.7654810489  MEMB      54              0.0000000000
      7186        60  POPC      C32             4.2443713098       54.5048384938       58.0945353152  MEMB      54              0.0000000000
      7187        60  POPC      H2X             4.5596431220       55.2136788171       58.8842591031  MEMB      54              0.0000000000
      7188        60  POPC      H2Y             3.9614898042       55.0599159336       57.1797792106  MEMB      54              0.0000000000
      7189        60  POPC      C23             4.4035545343       49.0659640002       59.8857907132  MEMB      54              0.0000000000
      7190        60  POPC      H3R             3.8512339095       48.5330394207       60.6905544224  MEMB      54              0.0000000000
      7191        60  POPC      H3S             4.9235342602       49.9166603562       60.3808149967  MEMB      54              0.0000000000
      7192        60  POPC      C24             5.4537820227       48.1169919031       59.2824280697  MEMB      54              0.0000000000
      7193        60  POPC      H4R             4.9633437183       47.1630505526       58.9913423215  MEMB      54              0.0000000000
      7194        60  POPC      H4S             6.2066074543       47.8728363829       60.0633658316  MEMB      54              0.0000000000
      7195        60  POPC      C25             6.1863383111       48.6805782782       58.0520043182  MEMB      54              0.0000000000
      7196        60  POPC      H5R             5.4574297538       48.8237015831       57.2236529367  MEMB      54              0.0000000000
      7197        60  POPC      H5S             6.9339645808       47.9357947140       57.6953350686  MEMB      54              0.0000000000
      7198        60  POPC      C26             6.8965016198       50.0178288944       58.3249605813  MEMB      54              0.0000000000
      7199        60  POPC      H6R             6.6314362457       50.3807575102       59.3399099912  MEMB      54              0.0000000000
      7200        60  POPC      H6S             6.5454080509       50.7934386003       57.6130293506  MEMB      54              0.0000000000
      7201        60  POPC      C27             8.4215742690       49.8924908896       58.2816176453  MEMB      54              0.0000000000
      7202        60  POPC      H7R             8.6991490844       48.9523407975       58.8112895166  MEMB      54              0.0000000000
      7203        60  POPC      H7S             8.8469679304       50.7467979448       58.8547198623  MEMB      54              0.0000000000
      7204        60  POPC      C28             9.0348472795       49.8648016350       56.8714396212  MEMB      54              0.0000000000
      7205        60  POPC      H8R             8.5165220061       49.0842299657       56.2723382333  MEMB      54              0.0000000000
      7206        60  POPC      H8S            10.0921372749       49.5292938258       56.9158200990  MEMB      54              0.0000000000
      7207        60  POPC      C29             8.9820318086       51.2335794121       56.2451556839  MEMB      54              0.0000000000
      7208        60  POPC      H91             9.7504320468       51.9468825351       56.5793622114  MEMB      54              0.0000000000
      7209        60  POPC      C210            8.0763923253       51.6303786690       55.3433833961  MEMB      54              0.0000000000
      7210        60  POPC      H101            8.1359373724       52.6532999918       54.9408337917  MEMB      54              0.0000000000
      7211        60  POPC      C211            6.9593200444       50.7779482883       54.8038023334  MEMB      54              0.0000000000
      7212        60  POPC      H11R            5.9710134656       51.2658758155       54.9454780001  MEMB      54              0.0000000000
      7213        60  POPC      H11S            6.8767039150       49.7957526208       55.3166474324  MEMB      54              0.0000000000
      7214        60  POPC      C212            7.1969115320       50.5327577841       53.3171901964  MEMB      54              0.0000000000
      7215        60  POPC      H12R            8.2525405335       50.2313428643       53.1289992173  MEMB      54              0.0000000000
      7216        60  POPC      H12S            7.0092330313       51.4798929307       52.7645350706  MEMB      54              0.0000000000
      7217        60  POPC      C213            6.3071015835       49.4113509569       52.7873473949  MEMB      54              0.0000000000
      7218        60  POPC      H13R            5.2477756583       49.7160077044       52.8974633741  MEMB      54              0.0000000000
      7219        60  POPC      H13S            6.4663925366       48.4981429858       53.4057515523  MEMB      54              0.0000000000
      7220        60  POPC      C214            6.6103477518       49.0849055348       51.3249749724  MEMB      54              0.0000000000
      7221        60  POPC      H14R            6.0246435062       48.1888668780       51.0228733770  MEMB      54              0.0000000000
      7222        60  POPC      H14S            7.6918852730       48.8394629796       51.2285322465  MEMB      54              0.0000000000
      7223        60  POPC      C215            6.3002519793       50.2528088509       50.3874122657  MEMB      54              0.0000000000
      7224        60  POPC      H15R            6.9346593536       51.1228787207       50.6711534285  MEMB      54              0.0000000000
      7225        60  POPC      H15S            5.2362755671       50.5522731111       50.5148302145  MEMB      54              0.0000000000
      7226        60  POPC      C216            6.5829267159       49.9291132471       48.9197604827  MEMB      54              0.0000000000
      7227        60  POPC      H16R            7.5610754361       49.4106506870       48.8448205336  MEMB      54              0.0000000000
      7228        60  POPC      H16S            6.6782511869       50.8777082920       48.3439670196  MEMB      54              0.0000000000
      7229        60  POPC      C217            5.4806276858       49.0917549898       48.2687215113  MEMB      54              0.0000000000
      7230        60  POPC      H17R            4.5529169556       49.7086288219       48.2224244824  MEMB      54              0.0000000000
      7231        60  POPC      H17S            5.2530122768       48.2001469464       48.8957151180  MEMB      54              0.0000000000
      7232        60  POPC      C218            5.8703512644       48.6341086280       46.8648466891  MEMB      54              0.0000000000
      7233        60  POPC      H18R            6.5932528149       47.7951723720       46.9221966066  MEMB      54              0.0000000000
      7234        60  POPC      H18S            6.3477991752       49.4647828393       46.3055476246  MEMB      54              0.0000000000
      7235        60  POPC      H18T            4.9777736679       48.2998665274       46.2981229282  MEMB      54              0.0000000000
      7236        60  POPC      C33             5.3949858885       53.5767942755       57.6451614093  MEMB      54              0.0000000000
      7237        60  POPC      H3X             5.0382828202       52.8390940265       56.8910730554  MEMB      54              0.0000000000
      7238        60  POPC      H3Y             5.7357257301       52.9996484868       58.5354784036  MEMB      54              0.0000000000
      7239        60  POPC      C34             6.6116285903       54.3395349788       57.0774532823  MEMB      54              0.0000000000
      7240        60  POPC      H4X             7.4490064202       53.6149057619       57.0138504897  MEMB      54              0.0000000000
      7241        60  POPC      H4Y             6.9166304390       55.1112876043       57.8199869025  MEMB      54              0.0000000000
      7242        60  POPC      C35             6.4656219862       55.0251401989       55.6970969473  MEMB      54              0.0000000000
      7243        60  POPC      H5X             7.4864786414       55.1883234922       55.2817311006  MEMB      54              0.0000000000
      7244        60  POPC      H5Y             6.0348843835       56.0342880611       55.8616359815  MEMB      54              0.0000000000
      7245        60  POPC      C36             5.6105990758       54.2854962921       54.6495949817  MEMB      54              0.0000000000
      7246        60  POPC      H6X             4.5891633334       54.1336682003       55.0667964072  MEMB      54              0.0000000000
      7247        60  POPC      H6Y             6.0331385373       53.2875470215       54.4335017135  MEMB      54              0.0000000000
      7248        60  POPC      C37             5.4630406729       55.0369285121       53.3146538294  MEMB      54              0.0000000000
      7249        60  POPC      H7X             5.3018739286       56.1197162095       53.5119920134  MEMB      54              0.0000000000
      7250        60  POPC      H7Y             4.5579782390       54.6512280513       52.7922971984  MEMB      54              0.0000000000
      7251        60  POPC      C38             6.6563464307       54.8658692917       52.3664177217  MEMB      54              0.0000000000
      7252        60  POPC      H8X             6.7062088232       53.8164807236       52.0035168971  MEMB      54              0.0000000000
      7253        60  POPC      H8Y             7.5932454949       55.0730442776       52.9312329895  MEMB      54              0.0000000000
      7254        60  POPC      C39             6.5958818755       55.8320226481       51.1745283761  MEMB      54              0.0000000000
      7255        60  POPC      H9X             7.5422971266       55.7741120101       50.6002085931  MEMB      54              0.0000000000
      7256        60  POPC      H9Y             6.5367140269       56.8579020785       51.5928869147  MEMB      54              0.0000000000
      7257        60  POPC      C310            5.4349101125       55.6001828310       50.1889804757  MEMB      54              0.0000000000
      7258        60  POPC      H10X            5.3860515015       56.4857020780       49.5125358561  MEMB      54              0.0000000000
      7259        60  POPC      H10Y            4.4621878657       55.5518770564       50.7200338910  MEMB      54              0.0000000000
      7260        60  POPC      C311            5.6435971905       54.3569511096       49.3074948917  MEMB      54              0.0000000000
      7261        60  POPC      H11X            6.7039720438       54.0317748426       49.4108163069  MEMB      54              0.0000000000
      7262        60  POPC      H11Y            5.5091753355       54.6286703306       48.2392097829  MEMB      54              0.0000000000
      7263        60  POPC      C312            4.7389708086       53.1646867054       49.6561209711  MEMB      54              0.0000000000
      7264        60  POPC      H12X            4.7962132761       52.9618657114       50.7490838562  MEMB      54              0.0000000000
      7265        60  POPC      H12Y            5.1395501832       52.2780182929       49.1192795918  MEMB      54              0.0000000000
      7266        60  POPC      C313            3.2686916065       53.2851794607       49.2279620199  MEMB      54              0.0000000000
      7267        60  POPC      H13X            2.7996321083       54.1478038821       49.7470780942  MEMB      54              0.0000000000
      7268        60  POPC      H13Y            2.7370514319       52.3672464751       49.5673215886  MEMB      54              0.0000000000
      7269        60  POPC      C314            3.0930393966       53.4119541068       47.7046137441  MEMB      54              0.0000000000
      7270        60  POPC      H14X            3.5947845785       52.5631990722       47.1911193924  MEMB      54              0.0000000000
      7271        60  POPC      H14Y            3.5926459610       54.3459357024       47.3656317958  MEMB      54              0.0000000000
      7272        60  POPC      C315            1.6224153466       53.4744483945       47.2754413385  MEMB      54              0.0000000000
      7273        60  POPC      H15X            1.0742980881       54.1065382179       48.0103356543  MEMB      54              0.0000000000
      7274        60  POPC      H15Y            1.1759925784       52.4595594323       47.3195470127  MEMB      54              0.0000000000
      7275        60  POPC      C316            1.4036115618       54.0534005243       45.8768795827  MEMB      54              0.0000000000
      7276        60  POPC      H16X            2.1611921578       54.8298471557       45.6406984528  MEMB      54              0.0000000000
      7277        60  POPC      H16Y            0.3976409273       54.5197323607       45.8191980237  MEMB      54              0.0000000000
      7278        60  POPC      H16Z            1.4542317341       53.2546311894       45.1083495043  MEMB      54              0.0000000000
      7279        61  POPS      N              54.6371953616       57.1949872538       63.9439413677  MEMB      55              0.0000000000
      7280        61  POPS      HN1            55.1828266609       56.7357583774       63.1913405913  MEMB      55              0.0000000000
      7281        61  POPS      HN2            54.0463217063       56.5217952985       64.4784879777  MEMB      55              0.0000000000
      7282        61  POPS      HN3            53.9680423058       57.9022156404       63.5840586476  MEMB      55              0.0000000000
      7283        61  POPS      C12            55.5645135105       57.9166771285       64.8820779273  MEMB      55              0.0000000000
      7284        61  POPS      H12A           56.2986380486       57.2244960197       65.2690352991  MEMB      55              0.0000000000
      7285        61  POPS      C13            54.7657708166       58.5047887647       66.0740154832  MEMB      55              0.0000000000
      7286        61  POPS      O13A           53.5384382335       58.6987557827       65.8781612993  MEMB      55              0.0000000000
      7287        61  POPS      O13B           55.3144237247       58.6800411958       67.1950699507  MEMB      55              0.0000000000
      7288        61  POPS      C11            56.2470820356       59.0386219165       64.0428623386  MEMB      55              0.0000000000
      7289        61  POPS      H11A           55.5208338875       59.8670586730       63.8831292480  MEMB      55              0.0000000000
      7290        61  POPS      H11B           56.5333244832       58.6368424165       63.0390369047  MEMB      55              0.0000000000
      7291        61  POPS      P              58.5545233107       60.2890234522       63.9406917347  MEMB      55              0.0000000000
      7292        61  POPS      O13            59.2493155754       59.2629643320       63.1309210937  MEMB      55              0.0000000000
      7293        61  POPS      O14            59.3551424989       60.9688238999       64.9799435334  MEMB      55              0.0000000000
      7294        61  POPS      O12            57.3925901748       59.5327568594       64.7167903077  MEMB      55              0.0000000000
      7295        61  POPS      O11            57.7382955086       61.3355402414       63.0502469214  MEMB      55              0.0000000000
      7296        61  POPS      C1             56.9946543078       62.3637313594       63.7404912531  MEMB      55              0.0000000000
      7297        61  POPS      HA             57.6637998405       63.2374088556       63.9244485019  MEMB      55              0.0000000000
      7298        61  POPS      HB             56.6051992607       62.0035731958       64.7244345678  MEMB      55              0.0000000000
      7299        61  POPS      C2             55.7270277789       62.8757166573       62.9735269673  MEMB      55              0.0000000000
      7300        61  POPS      HS             55.0788588762       63.4024350326       63.7108960222  MEMB      55              0.0000000000
      7301        61  POPS      O21            55.0288525775       61.7414939867       62.4102552453  MEMB      55              0.0000000000
      7302        61  POPS      C21            53.8371253380       61.9578209806       61.8696928445  MEMB      55              0.0000000000
      7303        61  POPS      O22            53.2926749836       63.0378371759       61.7425057691  MEMB      55              0.0000000000
      7304        61  POPS      C22            53.2552926410       60.5873211754       61.4721087770  MEMB      55              0.0000000000
      7305        61  POPS      H2R            52.3215023062       60.8053429248       60.9205210540  MEMB      55              0.0000000000
      7306        61  POPS      H2S            52.9680903427       60.0525559826       62.3985700885  MEMB      55              0.0000000000
      7307        61  POPS      C3             56.1555283990       63.9161472652       61.8844593925  MEMB      55              0.0000000000
      7308        61  POPS      HX             56.5290002771       64.8005497504       62.4510918927  MEMB      55              0.0000000000
      7309        61  POPS      HY             55.2997518299       64.2708380566       61.2725752991  MEMB      55              0.0000000000
      7310        61  POPS      O31            57.2432196748       63.4428741818       61.0760106204  MEMB      55              0.0000000000
      7311        61  POPS      C31            56.9087868249       62.5693103983       60.1531390294  MEMB      55              0.0000000000
      7312        61  POPS      O32            55.7949532824       62.4299765168       59.6823525763  MEMB      55              0.0000000000
      7313        61  POPS      C32            58.1661103534       61.8585464194       59.6865757196  MEMB      55              0.0000000000
      7314        61  POPS      H2X            58.9503469614       61.9852070626       60.4694363942  MEMB      55              0.0000000000
      7315        61  POPS      H2Y            58.5112610958       62.3362417883       58.7478560412  MEMB      55              0.0000000000
      7316        61  POPS      C23            54.2242283199       59.7213838192       60.6176624505  MEMB      55              0.0000000000
      7317        61  POPS      H3R            54.9252442780       59.1702591610       61.2791071493  MEMB      55              0.0000000000
      7318        61  POPS      H3S            54.8474678827       60.3739385982       59.9718991891  MEMB      55              0.0000000000
      7319        61  POPS      C24            53.5242987482       58.7675883328       59.6398826826  MEMB      55              0.0000000000
      7320        61  POPS      H4R            52.7663797808       58.1777339210       60.1991983501  MEMB      55              0.0000000000
      7321        61  POPS      H4S            54.2651910134       58.0523455828       59.2134080144  MEMB      55              0.0000000000
      7322        61  POPS      C25            52.8297268924       59.5036059333       58.4799170521  MEMB      55              0.0000000000
      7323        61  POPS      H5R            52.1745944322       60.2955723227       58.8956603125  MEMB      55              0.0000000000
      7324        61  POPS      H5S            52.1539168834       58.7969043116       57.9595158613  MEMB      55              0.0000000000
      7325        61  POPS      C26            53.7383942655       60.1673091230       57.4198787892  MEMB      55              0.0000000000
      7326        61  POPS      H6R            54.2531390845       61.0508179247       57.8581680478  MEMB      55              0.0000000000
      7327        61  POPS      H6S            53.0670299137       60.5510864724       56.6160474590  MEMB      55              0.0000000000
      7328        61  POPS      C27            54.7767950710       59.2425542140       56.7622490826  MEMB      55              0.0000000000
      7329        61  POPS      H7R            54.4026790049       58.1988401406       56.8174418550  MEMB      55              0.0000000000
      7330        61  POPS      H7S            55.7248841852       59.2661104910       57.3391668379  MEMB      55              0.0000000000
      7331        61  POPS      C28            55.0381186501       59.5477628694       55.2664321184  MEMB      55              0.0000000000
      7332        61  POPS      H8R            54.0719850731       59.4349022107       54.7258605063  MEMB      55              0.0000000000
      7333        61  POPS      H8S            55.7051650752       58.7479066011       54.8727250702  MEMB      55              0.0000000000
      7334        61  POPS      C29            55.6806145467       60.8925683523       55.0210801504  MEMB      55              0.0000000000
      7335        61  POPS      H91            56.7125266242       60.9784790202       55.3961236849  MEMB      55              0.0000000000
      7336        61  POPS      C210           55.1176455323       61.9715855090       54.4427193412  MEMB      55              0.0000000000
      7337        61  POPS      H101           55.7118852383       62.8941488148       54.3570820246  MEMB      55              0.0000000000
      7338        61  POPS      C211           53.7139902709       62.0978817969       53.9043492073  MEMB      55              0.0000000000
      7339        61  POPS      H11R           53.1243045122       62.6943264368       54.6376408538  MEMB      55              0.0000000000
      7340        61  POPS      H11S           53.2026167033       61.1166784367       53.8033192216  MEMB      55              0.0000000000
      7341        61  POPS      C212           53.6304938877       62.8417883823       52.5559591091  MEMB      55              0.0000000000
      7342        61  POPS      H12R           54.2357935491       63.7670836724       52.6036782322  MEMB      55              0.0000000000
      7343        61  POPS      H12S           52.5757447669       63.1588080847       52.3900471977  MEMB      55              0.0000000000
      7344        61  POPS      C213           54.0753004994       62.0318745381       51.3303458484  MEMB      55              0.0000000000
      7345        61  POPS      H13R           53.3761691351       61.1791836401       51.1792910687  MEMB      55              0.0000000000
      7346        61  POPS      H13S           55.0912171638       61.6124197054       51.5031280963  MEMB      55              0.0000000000
      7347        61  POPS      C214           54.0951648851       62.9096998688       50.0694940984  MEMB      55              0.0000000000
      7348        61  POPS      H14R           54.8772501116       63.6941974116       50.1863746502  MEMB      55              0.0000000000
      7349        61  POPS      H14S           53.1125789299       63.4252796001       49.9684309195  MEMB      55              0.0000000000
      7350        61  POPS      C215           54.3614266455       62.1161508526       48.7867286813  MEMB      55              0.0000000000
      7351        61  POPS      H15R           53.5323162616       61.3869168285       48.6386376960  MEMB      55              0.0000000000
      7352        61  POPS      H15S           55.3022470446       61.5348395050       48.8945790217  MEMB      55              0.0000000000
      7353        61  POPS      C216           54.4762390952       63.0122804465       47.5480788208  MEMB      55              0.0000000000
      7354        61  POPS      H16R           55.3593218633       63.6816781964       47.6571796926  MEMB      55              0.0000000000
      7355        61  POPS      H16S           53.5698556453       63.6554723242       47.4708466803  MEMB      55              0.0000000000
      7356        61  POPS      C217           54.6139924723       62.1929104995       46.2620073480  MEMB      55              0.0000000000
      7357        61  POPS      H17R           53.7264791714       61.5251144255       46.1795510501  MEMB      55              0.0000000000
      7358        61  POPS      H17S           55.5149990480       61.5412545338       46.3389728643  MEMB      55              0.0000000000
      7359        61  POPS      C218           54.7170845675       63.0492669354       44.9996535402  MEMB      55              0.0000000000
      7360        61  POPS      H18R           54.7406331631       62.4099125057       44.0915259303  MEMB      55              0.0000000000
      7361        61  POPS      H18S           55.6437126263       63.6616975992       45.0197818262  MEMB      55              0.0000000000
      7362        61  POPS      H18T           53.8418896917       63.7283273594       44.9152036367  MEMB      55              0.0000000000
      7363        61  POPS      C33            57.9186507656       60.3601541131       59.4744850191  MEMB      55              0.0000000000
      7364        61  POPS      H3X            57.1588651766       60.2006616035       58.6775038676  MEMB      55              0.0000000000
      7365        61  POPS      H3Y            57.5404310401       59.8936742991       60.4150067223  MEMB      55              0.0000000000
      7366        61  POPS      C34            59.2285141524       59.6870224270       59.0877519958  MEMB      55              0.0000000000
      7367        61  POPS      H4X            59.9652395683       59.8393923653       59.9103554573  MEMB      55              0.0000000000
      7368        61  POPS      H4Y            59.6200211710       60.1979714371       58.1777723707  MEMB      55              0.0000000000
      7369        61  POPS      C35            59.0744768472       58.1947870463       58.8135328763  MEMB      55              0.0000000000
      7370        61  POPS      H5X            58.0088592596       57.9326669950       58.6285740946  MEMB      55              0.0000000000
      7371        61  POPS      H5Y            59.3982338951       57.6298507556       59.7174498048  MEMB      55              0.0000000000
      7372        61  POPS      C36            59.9114047575       57.7754294696       57.6054789163  MEMB      55              0.0000000000
      7373        61  POPS      H6X            60.3234545871       56.7678647617       57.7925091800  MEMB      55              0.0000000000
      7374        61  POPS      H6Y            60.7890527485       58.4422262222       57.5067156455  MEMB      55              0.0000000000
      7375        61  POPS      C37            59.1202081171       57.7655846242       56.2933432549  MEMB      55              0.0000000000
      7376        61  POPS      H7X            58.9595269268       58.8115444022       55.9490188911  MEMB      55              0.0000000000
      7377        61  POPS      H7Y            58.1205454654       57.3013342405       56.4562767789  MEMB      55              0.0000000000
      7378        61  POPS      C38            59.8736924946       56.9720039675       55.2245501927  MEMB      55              0.0000000000
      7379        61  POPS      H8X            59.8447917976       55.9031464970       55.5090780129  MEMB      55              0.0000000000
      7380        61  POPS      H8Y            60.9399936662       57.2861782136       55.2312810554  MEMB      55              0.0000000000
      7381        61  POPS      C39            59.3245963431       57.1484203047       53.8078369431  MEMB      55              0.0000000000
      7382        61  POPS      H9X            60.0159586970       56.6380308751       53.0976039083  MEMB      55              0.0000000000
      7383        61  POPS      H9Y            59.3410536299       58.2350107875       53.5736607381  MEMB      55              0.0000000000
      7384        61  POPS      C310           57.9124158112       56.5779471098       53.6096661375  MEMB      55              0.0000000000
      7385        61  POPS      H10X           57.1855687516       57.1177458350       54.2543410116  MEMB      55              0.0000000000
      7386        61  POPS      H10Y           57.9098408500       55.5106270691       53.9285050428  MEMB      55              0.0000000000
      7387        61  POPS      C311           57.4535934844       56.6523415813       52.1472079234  MEMB      55              0.0000000000
      7388        61  POPS      H11X           56.4652470391       56.1551160715       52.0400965322  MEMB      55              0.0000000000
      7389        61  POPS      H11Y           58.1819903380       56.0807015599       51.5282556874  MEMB      55              0.0000000000
      7390        61  POPS      C312           57.3626377438       58.0853815410       51.6026595716  MEMB      55              0.0000000000
      7391        61  POPS      H12X           58.3220734239       58.6125254003       51.7971730964  MEMB      55              0.0000000000
      7392        61  POPS      H12Y           56.5565677030       58.6479825364       52.1230495827  MEMB      55              0.0000000000
      7393        61  POPS      C313           57.1386207189       58.1126264479       50.0878438457  MEMB      55              0.0000000000
      7394        61  POPS      H13X           56.0866781737       57.8340939628       49.8598312182  MEMB      55              0.0000000000
      7395        61  POPS      H13Y           57.8021381391       57.3379694759       49.6422574505  MEMB      55              0.0000000000
      7396        61  POPS      C314           57.4758150415       59.4739299164       49.4649682889  MEMB      55              0.0000000000
      7397        61  POPS      H14X           58.4747547663       59.8074435495       49.8261468827  MEMB      55              0.0000000000
      7398        61  POPS      H14Y           56.7346214212       60.2213242418       49.8224320316  MEMB      55              0.0000000000
      7399        61  POPS      C315           57.5094091931       59.4567557310       47.9286113601  MEMB      55              0.0000000000
      7400        61  POPS      H15X           57.6378903071       60.5065978277       47.5749994971  MEMB      55              0.0000000000
      7401        61  POPS      H15Y           56.5268973570       59.1002144018       47.5439913673  MEMB      55              0.0000000000
      7402        61  POPS      C316           58.6392288301       58.5999003890       47.3429308739  MEMB      55              0.0000000000
      7403        61  POPS      H16X           59.6239167564       58.9500286229       47.7185760844  MEMB      55              0.0000000000
      7404        61  POPS      H16Y           58.6438141364       58.6573540930       46.2351223246  MEMB      55              0.0000000000
      7405        61  POPS      H16Z           58.5290525563       57.5332497597       47.6252982736  MEMB      55              0.0000000000
      7406        62  POPC      N              16.6756421732       -0.9773845851       65.6138024435  MEMB      56              0.0000000000
      7407        62  POPC      C12            17.8576612743       -0.0144879300       65.5917711799  MEMB      56              0.0000000000
      7408        62  POPC      H12A           18.4438696819       -0.1193891296       66.4993810742  MEMB      56              0.0000000000
      7409        62  POPC      H12B           17.5035663237        1.0155560387       65.5696073975  MEMB      56              0.0000000000
      7410        62  POPC      C13            15.9974107221       -0.9034269923       64.2767066310  MEMB      56              0.0000000000
      7411        62  POPC      H13A           16.7099785616       -1.2379425738       63.5119612559  MEMB      56              0.0000000000
      7412        62  POPC      H13B           15.1315213828       -1.5418264325       64.2190075999  MEMB      56              0.0000000000
      7413        62  POPC      H13C           15.7068061447        0.1090172130       64.0307162105  MEMB      56              0.0000000000
      7414        62  POPC      C14            17.1903074190       -2.3664743816       65.8309680179  MEMB      56              0.0000000000
      7415        62  POPC      H14A           17.8754740972       -2.6066979142       65.0108853910  MEMB      56              0.0000000000
      7416        62  POPC      H14B           17.7988434044       -2.3902061922       66.7225367023  MEMB      56              0.0000000000
      7417        62  POPC      H14C           16.4159115199       -3.1122088262       65.8398359560  MEMB      56              0.0000000000
      7418        62  POPC      C15            15.7068510612       -0.6034674037       66.6698713319  MEMB      56              0.0000000000
      7419        62  POPC      H15A           14.8512465698       -1.2628890389       66.7005583025  MEMB      56              0.0000000000
      7420        62  POPC      H15B           15.3492842894        0.4094453550       66.5327537682  MEMB      56              0.0000000000
      7421        62  POPC      H15C           16.1501464726       -0.6020598947       67.6716799941  MEMB      56              0.0000000000
      7422        62  POPC      C11            18.8740669069       -0.1570108646       64.4362614921  MEMB      56              0.0000000000
      7423        62  POPC      H11A           19.6798028192        0.5927071726       64.5504430037  MEMB      56              0.0000000000
      7424        62  POPC      H11B           18.3691972698        0.0934974640       63.4723597373  MEMB      56              0.0000000000
      7425        62  POPC      P              19.5749106284       -2.2769862746       63.1431352290  MEMB      56              0.0000000000
      7426        62  POPC      O13            18.2051386505       -2.3129711692       62.5749128204  MEMB      56              0.0000000000
      7427        62  POPC      O14            20.2318928469       -3.5653632059       63.4811036870  MEMB      56              0.0000000000
      7428        62  POPC      O12            19.4973258416       -1.4334626560       64.4698021771  MEMB      56              0.0000000000
      7429        62  POPC      O11            20.5307237266       -1.3763576352       62.2753142886  MEMB      56              0.0000000000
      7430        62  POPC      C1             21.7275060492       -0.8650095511       62.8783397055  MEMB      56              0.0000000000
      7431        62  POPC      HA             22.3034921803       -1.6637066014       63.4041339973  MEMB      56              0.0000000000
      7432        62  POPC      HB             21.4988762126       -0.0706341725       63.6246900216  MEMB      56              0.0000000000
      7433        62  POPC      C2             22.6426302126       -0.2560353162       61.7906564572  MEMB      56              0.0000000000
      7434        62  POPC      HS             23.4039395016        0.3822714258       62.2892197237  MEMB      56              0.0000000000
      7435        62  POPC      O21            21.8900390307        0.5020687912       60.8260234967  MEMB      56              0.0000000000
      7436        62  POPC      C21            21.2701144411        1.5603872500       61.3204198216  MEMB      56              0.0000000000
      7437        62  POPC      O22            21.5353796756        2.1027949541       62.3736293845  MEMB      56              0.0000000000
      7438        62  POPC      C22            20.1459213909        1.9958998848       60.3783429015  MEMB      56              0.0000000000
      7439        62  POPC      H2R            20.2583200542        3.0851671315       60.2302435046  MEMB      56              0.0000000000
      7440        62  POPC      H2S            19.1963916996        1.8188177438       60.9203839973  MEMB      56              0.0000000000
      7441        62  POPC      C3             23.3954795362       -1.4005748824       61.0676606536  MEMB      56              0.0000000000
      7442        62  POPC      HX             24.0596891114       -1.8604908938       61.8294685927  MEMB      56              0.0000000000
      7443        62  POPC      HY             24.0394187069       -0.9807803188       60.2609256129  MEMB      56              0.0000000000
      7444        62  POPC      O31            22.4923627225       -2.4244419257       60.6037309855  MEMB      56              0.0000000000
      7445        62  POPC      C31            21.8928277799       -2.1138542523       59.4489163864  MEMB      56              0.0000000000
      7446        62  POPC      O32            22.3557882404       -1.3339305817       58.6314352919  MEMB      56              0.0000000000
      7447        62  POPC      C32            20.5728430077       -2.8699838078       59.2970233153  MEMB      56              0.0000000000
      7448        62  POPC      H2X            19.7498047984       -2.1451220012       59.4592453003  MEMB      56              0.0000000000
      7449        62  POPC      H2Y            20.5200889415       -3.6237971196       60.1095954873  MEMB      56              0.0000000000
      7450        62  POPC      C23            20.1181974882        1.2554817140       59.0265049955  MEMB      56              0.0000000000
      7451        62  POPC      H3R            19.8625762026        0.1852426703       59.1985750885  MEMB      56              0.0000000000
      7452        62  POPC      H3S            21.1281929101        1.2765253299       58.5569943028  MEMB      56              0.0000000000
      7453        62  POPC      C24            19.1137528296        1.8546886688       58.0368121682  MEMB      56              0.0000000000
      7454        62  POPC      H4R            19.3943714954        2.9077054543       57.8124488217  MEMB      56              0.0000000000
      7455        62  POPC      H4S            18.1004848889        1.8689961738       58.4949945101  MEMB      56              0.0000000000
      7456        62  POPC      C25            19.0815189348        1.0321626329       56.7434803012  MEMB      56              0.0000000000
      7457        62  POPC      H5R            18.6106616982        0.0487180956       56.9609087319  MEMB      56              0.0000000000
      7458        62  POPC      H5S            20.1274959236        0.8333289724       56.4144669957  MEMB      56              0.0000000000
      7459        62  POPC      C26            18.3318998745        1.7077241855       55.5893176879  MEMB      56              0.0000000000
      7460        62  POPC      H6R            18.8161387522        2.6845549809       55.3624597928  MEMB      56              0.0000000000
      7461        62  POPC      H6S            17.2831642826        1.9086288164       55.8936626484  MEMB      56              0.0000000000
      7462        62  POPC      C27            18.3421210911        0.8269229724       54.3322631899  MEMB      56              0.0000000000
      7463        62  POPC      H7R            17.7503527025       -0.0924073081       54.5406613225  MEMB      56              0.0000000000
      7464        62  POPC      H7S            19.3946054210        0.5193244941       54.1300454410  MEMB      56              0.0000000000
      7465        62  POPC      C28            17.7843986149        1.5449488694       53.0940875525  MEMB      56              0.0000000000
      7466        62  POPC      H8R            18.4061014364        2.4545970971       52.9471609728  MEMB      56              0.0000000000
      7467        62  POPC      H8S            16.7494136912        1.8870003220       53.3197035465  MEMB      56              0.0000000000
      7468        62  POPC      C29            17.7688995696        0.6724096292       51.8650950702  MEMB      56              0.0000000000
      7469        62  POPC      H91            17.0606501747       -0.1694344351       51.9136977488  MEMB      56              0.0000000000
      7470        62  POPC      C210           18.5179244394        0.8135577818       50.7547486207  MEMB      56              0.0000000000
      7471        62  POPC      H101           18.3919757526        0.0735988392       49.9528490413  MEMB      56              0.0000000000
      7472        62  POPC      C211           19.5525234390        1.8760500951       50.4713031265  MEMB      56              0.0000000000
      7473        62  POPC      H11R           19.4658506736        2.7095280451       51.1958038260  MEMB      56              0.0000000000
      7474        62  POPC      H11S           19.3862705609        2.3270317908       49.4691957287  MEMB      56              0.0000000000
      7475        62  POPC      C212           21.0146184795        1.3936292789       50.5745508536  MEMB      56              0.0000000000
      7476        62  POPC      H12R           21.0776730680        0.4359883037       51.1293108724  MEMB      56              0.0000000000
      7477        62  POPC      H12S           21.5528436584        2.1469306454       51.1846458052  MEMB      56              0.0000000000
      7478        62  POPC      C213           21.7594681672        1.2712461934       49.2375878053  MEMB      56              0.0000000000
      7479        62  POPC      H13R           21.1256496250        0.7489706839       48.5000205146  MEMB      56              0.0000000000
      7480        62  POPC      H13S           22.6648400229        0.6418372595       49.3837944832  MEMB      56              0.0000000000
      7481        62  POPC      C214           22.1825291691        2.6317119203       48.6673318994  MEMB      56              0.0000000000
      7482        62  POPC      H14R           22.9724409708        3.0645353805       49.3169633868  MEMB      56              0.0000000000
      7483        62  POPC      H14S           21.3206460196        3.3304257065       48.7178077536  MEMB      56              0.0000000000
      7484        62  POPC      C215           22.7116692594        2.5445317723       47.2275700931  MEMB      56              0.0000000000
      7485        62  POPC      H15R           23.2041112683        1.5584786364       47.0768133338  MEMB      56              0.0000000000
      7486        62  POPC      H15S           23.4812337147        3.3327478023       47.0746072189  MEMB      56              0.0000000000
      7487        62  POPC      C216           21.6087083401        2.7598012439       46.1845158025  MEMB      56              0.0000000000
      7488        62  POPC      H16R           20.7718433481        2.0711785101       46.4273680998  MEMB      56              0.0000000000
      7489        62  POPC      H16S           21.9824007562        2.4937474703       45.1702159031  MEMB      56              0.0000000000
      7490        62  POPC      C217           21.0915027089        4.2075269223       46.1613053985  MEMB      56              0.0000000000
      7491        62  POPC      H17R           21.5898644148        4.7330450630       45.3190423302  MEMB      56              0.0000000000
      7492        62  POPC      H17S           21.4055403337        4.7349889546       47.0892946821  MEMB      56              0.0000000000
      7493        62  POPC      C218           19.5707665814        4.3157118257       46.0368218020  MEMB      56              0.0000000000
      7494        62  POPC      H18R           19.0742186969        3.7956821125       46.8836052645  MEMB      56              0.0000000000
      7495        62  POPC      H18S           19.2330984919        3.8460989702       45.0910027715  MEMB      56              0.0000000000
      7496        62  POPC      H18T           19.2461615164        5.3778482721       46.0401648091  MEMB      56              0.0000000000
      7497        62  POPC      C33            20.4246952273       -3.5605297455       57.9193657690  MEMB      56              0.0000000000
      7498        62  POPC      H3X            19.5596800709       -4.2596951021       57.9751185445  MEMB      56              0.0000000000
      7499        62  POPC      H3Y            21.3325462126       -4.1673455085       57.7085629302  MEMB      56              0.0000000000
      7500        62  POPC      C34            20.1583762299       -2.5936474584       56.7549031154  MEMB      56              0.0000000000
      7501        62  POPC      H4X            20.9999918597       -1.8705630782       56.6688537782  MEMB      56              0.0000000000
      7502        62  POPC      H4Y            19.2337470601       -2.0144479178       56.9662230822  MEMB      56              0.0000000000
      7503        62  POPC      C35            20.0095374255       -3.3292785107       55.4200572063  MEMB      56              0.0000000000
      7504        62  POPC      H5X            19.0192201657       -3.8265659213       55.3872504941  MEMB      56              0.0000000000
      7505        62  POPC      H5Y            20.8038026395       -4.1062779978       55.3464503293  MEMB      56              0.0000000000
      7506        62  POPC      C36            20.0939553074       -2.4161502260       54.2003193041  MEMB      56              0.0000000000
      7507        62  POPC      H6X            21.0094604268       -1.7862553344       54.2656768419  MEMB      56              0.0000000000
      7508        62  POPC      H6Y            19.2146915730       -1.7372450881       54.2004150899  MEMB      56              0.0000000000
      7509        62  POPC      C37            20.1113788365       -3.1940085089       52.8779972490  MEMB      56              0.0000000000
      7510        62  POPC      H7X            19.2013010424       -3.8265463221       52.7905813663  MEMB      56              0.0000000000
      7511        62  POPC      H7Y            21.0030514418       -3.8597473432       52.8578063747  MEMB      56              0.0000000000
      7512        62  POPC      C38            20.1654660187       -2.2253922619       51.6996299944  MEMB      56              0.0000000000
      7513        62  POPC      H8X            20.9605690336       -1.4820641571       51.9356117428  MEMB      56              0.0000000000
      7514        62  POPC      H8Y            19.2018036503       -1.6798489645       51.6295328091  MEMB      56              0.0000000000
      7515        62  POPC      C39            20.5015922211       -2.8693196371       50.3516140199  MEMB      56              0.0000000000
      7516        62  POPC      H9X            21.0782595114       -3.8067962745       50.5016955166  MEMB      56              0.0000000000
      7517        62  POPC      H9Y            21.1633282452       -2.1451624627       49.8209208826  MEMB      56              0.0000000000
      7518        62  POPC      C310           19.2719516613       -3.1282794943       49.4666977633  MEMB      56              0.0000000000
      7519        62  POPC      H10X           18.7460441897       -2.1618881979       49.3077272362  MEMB      56              0.0000000000
      7520        62  POPC      H10Y           18.5611108053       -3.7991793925       49.9985457431  MEMB      56              0.0000000000
      7521        62  POPC      C311           19.6154151201       -3.7359102397       48.0926346761  MEMB      56              0.0000000000
      7522        62  POPC      H11X           18.7829604684       -3.5406473597       47.3807217005  MEMB      56              0.0000000000
      7523        62  POPC      H11Y           19.6881772861       -4.8370888505       48.2218617382  MEMB      56              0.0000000000
      7524        62  POPC      C312           20.9437200107       -3.2359951989       47.4920859548  MEMB      56              0.0000000000
      7525        62  POPC      H12X           21.7665277408       -3.6231537234       48.1377988173  MEMB      56              0.0000000000
      7526        62  POPC      H12Y           21.0022485332       -2.1288677492       47.5147481374  MEMB      56              0.0000000000
      7527        62  POPC      C313           21.2109833723       -3.7337330005       46.0666210575  MEMB      56              0.0000000000
      7528        62  POPC      H13X           20.8132919691       -4.7635854413       45.9755657643  MEMB      56              0.0000000000
      7529        62  POPC      H13Y           22.3145989420       -3.7817490198       45.9118383046  MEMB      56              0.0000000000
      7530        62  POPC      C314           20.6219649663       -2.8616698958       44.9488780241  MEMB      56              0.0000000000
      7531        62  POPC      H14X           21.0728775130       -1.8470018177       45.0249799032  MEMB      56              0.0000000000
      7532        62  POPC      H14Y           19.5227705207       -2.7569831826       45.0768773144  MEMB      56              0.0000000000
      7533        62  POPC      C315           20.9273513094       -3.4559352437       43.5649075916  MEMB      56              0.0000000000
      7534        62  POPC      H15X           21.7109925106       -4.2294629312       43.7080616865  MEMB      56              0.0000000000
      7535        62  POPC      H15Y           21.3574514261       -2.6751911695       42.9009812330  MEMB      56              0.0000000000
      7536        62  POPC      C316           19.7307152461       -4.1080050799       42.8714365105  MEMB      56              0.0000000000
      7537        62  POPC      H16X           19.0206507842       -3.3443700166       42.4992416819  MEMB      56              0.0000000000
      7538        62  POPC      H16Y           19.1919559560       -4.7723827890       43.5807983764  MEMB      56              0.0000000000
      7539        62  POPC      H16Z           20.0622374479       -4.7179504390       42.0040446353  MEMB      56              0.0000000000
      7540        63  POPC      N              -0.0964455165       48.8412438076       64.9654259113  MEMB      57              0.0000000000
      7541        63  POPC      C12            -0.4466631586       47.4962283102       64.3505396425  MEMB      57              0.0000000000
      7542        63  POPC      H12A            0.2926116340       47.2506914541       63.5865749930  MEMB      57              0.0000000000
      7543        63  POPC      H12B           -1.4005770644       47.5562670319       63.8591982791  MEMB      57              0.0000000000
      7544        63  POPC      C13             1.3112296843       48.7152899035       65.4695864163  MEMB      57              0.0000000000
      7545        63  POPC      H13A            2.0063395828       48.6174308083       64.6364346980  MEMB      57              0.0000000000
      7546        63  POPC      H13B            1.6671302972       49.5596703859       66.0401121581  MEMB      57              0.0000000000
      7547        63  POPC      H13C            1.4223102667       47.8060429919       66.0597939361  MEMB      57              0.0000000000
      7548        63  POPC      C14            -0.1308269800       49.9207589649       63.9286096196  MEMB      57              0.0000000000
      7549        63  POPC      H14A            0.4146355463       50.7962127836       64.2700174868  MEMB      57              0.0000000000
      7550        63  POPC      H14B            0.3941665268       49.6084326685       63.0255040560  MEMB      57              0.0000000000
      7551        63  POPC      H14C           -1.1424833271       50.1973713761       63.6593878599  MEMB      57              0.0000000000
      7552        63  POPC      C15            -1.0523095609       49.1599706167       66.0719303593  MEMB      57              0.0000000000
      7553        63  POPC      H15A           -2.0342465404       49.4465974900       65.6980326667  MEMB      57              0.0000000000
      7554        63  POPC      H15B           -0.6900440806       49.9539354143       66.7011848507  MEMB      57              0.0000000000
      7555        63  POPC      H15C           -1.1880614991       48.2846782756       66.7127979370  MEMB      57              0.0000000000
      7556        63  POPC      C11            -0.4250680534       46.2772549205       65.2988920460  MEMB      57              0.0000000000
      7557        63  POPC      H11A           -1.0162363146       45.4537045605       64.8212566674  MEMB      57              0.0000000000
      7558        63  POPC      H11B           -0.9376514718       46.5093203391       66.2570626024  MEMB      57              0.0000000000
      7559        63  POPC      P               1.6067447320       44.7821602433       64.7042994317  MEMB      57              0.0000000000
      7560        63  POPC      O13             0.7828853688       43.5724913345       64.9404542210  MEMB      57              0.0000000000
      7561        63  POPC      O14             3.0603299494       44.7327548713       64.9180809491  MEMB      57              0.0000000000
      7562        63  POPC      O12             0.9332039390       45.9070547881       65.5741184105  MEMB      57              0.0000000000
      7563        63  POPC      O11             1.3066102313       45.2883738920       63.2423661099  MEMB      57              0.0000000000
      7564        63  POPC      C1              2.3119981701       46.0083194335       62.5296335040  MEMB      57              0.0000000000
      7565        63  POPC      HA              3.3102782040       45.5148792783       62.6068331654  MEMB      57              0.0000000000
      7566        63  POPC      HB              2.4196109657       47.0314592691       62.9464666180  MEMB      57              0.0000000000
      7567        63  POPC      C2              1.9623222961       46.0727490221       61.0187870097  MEMB      57              0.0000000000
      7568        63  POPC      HS              2.7001335392       46.7364637378       60.5149998151  MEMB      57              0.0000000000
      7569        63  POPC      O21             0.6336433596       46.5529676372       60.7583399100  MEMB      57              0.0000000000
      7570        63  POPC      C21             0.3736261048       47.7742477348       61.1241648240  MEMB      57              0.0000000000
      7571        63  POPC      O22             1.1545815546       48.5619500033       61.6294823562  MEMB      57              0.0000000000
      7572        63  POPC      C22            -1.1194603708       48.0357619223       60.8880717462  MEMB      57              0.0000000000
      7573        63  POPC      H2R            -1.4317417799       48.8297329354       61.5959263479  MEMB      57              0.0000000000
      7574        63  POPC      H2S            -1.6837673425       47.1113350553       61.1324225540  MEMB      57              0.0000000000
      7575        63  POPC      C3              2.0822856227       44.6702356146       60.3678418362  MEMB      57              0.0000000000
      7576        63  POPC      HX              1.5679548080       43.9416678137       61.0333514416  MEMB      57              0.0000000000
      7577        63  POPC      HY              3.1434849774       44.3675321264       60.3101602664  MEMB      57              0.0000000000
      7578        63  POPC      O31             1.4432998324       44.6400427180       59.0815541862  MEMB      57              0.0000000000
      7579        63  POPC      C31             2.0404517007       45.3509216567       58.1414756521  MEMB      57              0.0000000000
      7580        63  POPC      O32             3.1915856587       45.7498461286       58.1592184201  MEMB      57              0.0000000000
      7581        63  POPC      C32             1.0200769366       45.6709360985       57.0522618238  MEMB      57              0.0000000000
      7582        63  POPC      H2X             0.6864118977       46.7187274788       57.2126012251  MEMB      57              0.0000000000
      7583        63  POPC      H2Y             0.1391532274       45.0117408195       57.1856506198  MEMB      57              0.0000000000
      7584        63  POPC      C23            -1.4564343885       48.4866869578       59.4426086474  MEMB      57              0.0000000000
      7585        63  POPC      H3R            -2.1408043169       47.7450685093       58.9746237729  MEMB      57              0.0000000000
      7586        63  POPC      H3S            -0.5431681973       48.5286575914       58.8075133340  MEMB      57              0.0000000000
      7587        63  POPC      C24            -2.1276077244       49.8652791943       59.4313973541  MEMB      57              0.0000000000
      7588        63  POPC      H4R            -1.4385996814       50.6210116662       59.8721256675  MEMB      57              0.0000000000
      7589        63  POPC      H4S            -3.0328493587       49.8119871259       60.0825905518  MEMB      57              0.0000000000
      7590        63  POPC      C25            -2.5820098983       50.3403410420       58.0422707571  MEMB      57              0.0000000000
      7591        63  POPC      H5R            -3.2319038068       51.2330885469       58.2105916527  MEMB      57              0.0000000000
      7592        63  POPC      H5S            -3.2052687498       49.5627292666       57.5518218060  MEMB      57              0.0000000000
      7593        63  POPC      C26            -1.4768851884       50.7893216384       57.0765325291  MEMB      57              0.0000000000
      7594        63  POPC      H6R            -0.6178968154       51.2121598863       57.6403791160  MEMB      57              0.0000000000
      7595        63  POPC      H6S            -1.9076399789       51.6113714009       56.4566759344  MEMB      57              0.0000000000
      7596        63  POPC      C27            -1.0106026259       49.6992933331       56.0977880040  MEMB      57              0.0000000000
      7597        63  POPC      H7R            -1.9098414206       49.1403022913       55.7462137258  MEMB      57              0.0000000000
      7598        63  POPC      H7S            -0.3347051028       48.9850160594       56.6166295240  MEMB      57              0.0000000000
      7599        63  POPC      C28            -0.3206083331       50.2844394621       54.8494451458  MEMB      57              0.0000000000
      7600        63  POPC      H8R            -1.0275164753       50.9844091671       54.3536271044  MEMB      57              0.0000000000
      7601        63  POPC      H8S            -0.1432921513       49.4560430169       54.1287943395  MEMB      57              0.0000000000
      7602        63  POPC      C29             0.9531972899       51.0185525493       55.1863205603  MEMB      57              0.0000000000
      7603        63  POPC      H91             0.8239636915       51.9243794680       55.8033833122  MEMB      57              0.0000000000
      7604        63  POPC      C210            2.1975302397       50.6480865536       54.8390933161  MEMB      57              0.0000000000
      7605        63  POPC      H101            3.0427575217       51.2783167823       55.1620058921  MEMB      57              0.0000000000
      7606        63  POPC      C211            2.5602754648       49.4185388507       54.0424158778  MEMB      57              0.0000000000
      7607        63  POPC      H11R            1.8460976312       48.5868107592       54.2320895509  MEMB      57              0.0000000000
      7608        63  POPC      H11S            3.5598697761       49.0511325776       54.3607477379  MEMB      57              0.0000000000
      7609        63  POPC      C212            2.5781349310       49.7058375797       52.5297039331  MEMB      57              0.0000000000
      7610        63  POPC      H12R            3.3027051377       50.5305134871       52.3356802902  MEMB      57              0.0000000000
      7611        63  POPC      H12S            1.5858922244       50.0756086672       52.1964898249  MEMB      57              0.0000000000
      7612        63  POPC      C213            3.0081492465       48.4893598636       51.6849045250  MEMB      57              0.0000000000
      7613        63  POPC      H13R            3.7290041679       47.8744571937       52.2676872870  MEMB      57              0.0000000000
      7614        63  POPC      H13S            3.5603921911       48.8640684312       50.7937223875  MEMB      57              0.0000000000
      7615        63  POPC      C214            1.8580583525       47.5959601096       51.1858848258  MEMB      57              0.0000000000
      7616        63  POPC      H14R            1.3556940333       47.1312504708       52.0578824340  MEMB      57              0.0000000000
      7617        63  POPC      H14S            2.2925602613       46.7766180083       50.5681433336  MEMB      57              0.0000000000
      7618        63  POPC      C215            0.7881337220       48.3178890713       50.3512486253  MEMB      57              0.0000000000
      7619        63  POPC      H15R            0.1879702376       48.9690111371       51.0232687371  MEMB      57              0.0000000000
      7620        63  POPC      H15S            0.0878678223       47.5591790563       49.9334735756  MEMB      57              0.0000000000
      7621        63  POPC      C216            1.3665349234       49.1525618313       49.1996417426  MEMB      57              0.0000000000
      7622        63  POPC      H16R            1.9257181203       48.4679593635       48.5263503143  MEMB      57              0.0000000000
      7623        63  POPC      H16S            2.0884975612       49.9065321909       49.5846848004  MEMB      57              0.0000000000
      7624        63  POPC      C217            0.2872839176       49.9001819832       48.4103323721  MEMB      57              0.0000000000
      7625        63  POPC      H17R           -0.5354716227       49.1893027697       48.1715815459  MEMB      57              0.0000000000
      7626        63  POPC      H17S            0.7211023590       50.2415440973       47.4431076090  MEMB      57              0.0000000000
      7627        63  POPC      C218           -0.2707419844       51.1070561250       49.1679156062  MEMB      57              0.0000000000
      7628        63  POPC      H18R            0.5265384036       51.8510317054       49.3713377479  MEMB      57              0.0000000000
      7629        63  POPC      H18S           -0.6818269576       50.7869177168       50.1468030566  MEMB      57              0.0000000000
      7630        63  POPC      H18T           -1.0783538851       51.6021904872       48.5867235177  MEMB      57              0.0000000000
      7631        63  POPC      C33             1.6108537051       45.5224245386       55.6339378988  MEMB      57              0.0000000000
      7632        63  POPC      H3X             2.1063907016       44.5356597019       55.5140310111  MEMB      57              0.0000000000
      7633        63  POPC      H3Y             2.3915602626       46.3049395796       55.4878667221  MEMB      57              0.0000000000
      7634        63  POPC      C34             0.5407568676       45.6786985743       54.5456839138  MEMB      57              0.0000000000
      7635        63  POPC      H4X             1.0420062736       45.7941365621       53.5620823166  MEMB      57              0.0000000000
      7636        63  POPC      H4Y            -0.0230183415       46.6171103817       54.7534163426  MEMB      57              0.0000000000
      7637        63  POPC      C35            -0.4324447525       44.4923916308       54.4440993509  MEMB      57              0.0000000000
      7638        63  POPC      H5X            -0.4568837150       43.9414126913       55.4109465530  MEMB      57              0.0000000000
      7639        63  POPC      H5Y            -0.0676369169       43.7765456097       53.6783603869  MEMB      57              0.0000000000
      7640        63  POPC      C36            -1.8722865311       44.9272252116       54.1233690411  MEMB      57              0.0000000000
      7641        63  POPC      H6X            -2.1704629119       45.6701091573       54.8909052042  MEMB      57              0.0000000000
      7642        63  POPC      H6Y            -2.5434498954       44.0427833202       54.2176592454  MEMB      57              0.0000000000
      7643        63  POPC      C37            -2.0865727282       45.5689749460       52.7446687293  MEMB      57              0.0000000000
      7644        63  POPC      H7X            -1.4072905588       46.4434561314       52.6266060150  MEMB      57              0.0000000000
      7645        63  POPC      H7Y            -3.1316868879       45.9499815140       52.6840235020  MEMB      57              0.0000000000
      7646        63  POPC      C38            -1.8628580533       44.5854465711       51.5949703333  MEMB      57              0.0000000000
      7647        63  POPC      H8X            -2.4587731741       43.6596580714       51.7577410497  MEMB      57              0.0000000000
      7648        63  POPC      H8Y            -0.7908026312       44.2994296305       51.5993494312  MEMB      57              0.0000000000
      7649        63  POPC      C39            -2.2035311782       45.1853138727       50.2276937294  MEMB      57              0.0000000000
      7650        63  POPC      H9X            -1.8499816752       46.2417757697       50.2052858915  MEMB      57              0.0000000000
      7651        63  POPC      H9Y            -3.3060205241       45.1847246181       50.0816933437  MEMB      57              0.0000000000
      7652        63  POPC      C310           -1.5095881936       44.4305858580       49.0910529811  MEMB      57              0.0000000000
      7653        63  POPC      H10X           -1.8027232673       43.3567363991       49.1234199666  MEMB      57              0.0000000000
      7654        63  POPC      H10Y           -0.4131507315       44.4957843443       49.2762524548  MEMB      57              0.0000000000
      7655        63  POPC      C311           -1.8113349784       45.0010254196       47.6995667380  MEMB      57              0.0000000000
      7656        63  POPC      H11X           -1.6700978392       46.1032495340       47.7085651991  MEMB      57              0.0000000000
      7657        63  POPC      H11Y           -2.8828940211       44.8056622231       47.4660661373  MEMB      57              0.0000000000
      7658        63  POPC      C312           -0.9347679805       44.3834305004       46.5972676416  MEMB      57              0.0000000000
      7659        63  POPC      H12X           -1.3381395582       44.6876213630       45.6053520047  MEMB      57              0.0000000000
      7660        63  POPC      H12Y           -1.0202326673       43.2805161141       46.6660839846  MEMB      57              0.0000000000
      7661        63  POPC      C313            0.5587212403       44.7595995017       46.6472514175  MEMB      57              0.0000000000
      7662        63  POPC      H13X            1.0594934799       44.2380712517       45.8050000433  MEMB      57              0.0000000000
      7663        63  POPC      H13Y            1.0210328474       44.3836010530       47.5851866719  MEMB      57              0.0000000000
      7664        63  POPC      C314            0.7913044834       46.2741181005       46.5455919088  MEMB      57              0.0000000000
      7665        63  POPC      H14X            0.5042369869       46.7394524273       47.5148514972  MEMB      57              0.0000000000
      7666        63  POPC      H14Y            0.1101755381       46.6606694662       45.7577812414  MEMB      57              0.0000000000
      7667        63  POPC      C315            2.2113258414       46.7349796573       46.1795051775  MEMB      57              0.0000000000
      7668        63  POPC      H15X            2.3431369607       47.7819665254       46.5301667490  MEMB      57              0.0000000000
      7669        63  POPC      H15Y            2.3105816396       46.7844365291       45.0786265883  MEMB      57              0.0000000000
      7670        63  POPC      C316            3.3416327739       45.8674208348       46.7146951539  MEMB      57              0.0000000000
      7671        63  POPC      H16X            3.3308332661       45.8444995269       47.8251472372  MEMB      57              0.0000000000
      7672        63  POPC      H16Y            4.3262095860       46.2475976840       46.3719597563  MEMB      57              0.0000000000
      7673        63  POPC      H16Z            3.2412720916       44.8320191575       46.3264221413  MEMB      57              0.0000000000
      7674        64  POPS      N              63.9411204260        9.0952163423       63.6208374761  MEMB      58              0.0000000000
      7675        64  POPS      HN1            63.5199602177        8.5692680061       62.8314371665  MEMB      58              0.0000000000
      7676        64  POPS      HN2            64.3860945836        9.9589195444       63.2710052518  MEMB      58              0.0000000000
      7677        64  POPS      HN3            64.6662702346        8.5393299576       64.1439311530  MEMB      58              0.0000000000
      7678        64  POPS      C12            62.8984433570        9.3581424387       64.6648325165  MEMB      58              0.0000000000
      7679        64  POPS      H12A           62.3597397001       10.2671584174       64.4442007245  MEMB      58              0.0000000000
      7680        64  POPS      C13            63.6628892784        9.4820318996       65.9994659544  MEMB      58              0.0000000000
      7681        64  POPS      O13A           64.6217603398        8.6818641374       66.1667219813  MEMB      58              0.0000000000
      7682        64  POPS      O13B           63.3865445550       10.3997786709       66.8148310522  MEMB      58              0.0000000000
      7683        64  POPS      C11            61.9592362831        8.1032727995       64.6488842277  MEMB      58              0.0000000000
      7684        64  POPS      H11A           62.4952957556        7.2263919470       65.0752917162  MEMB      58              0.0000000000
      7685        64  POPS      H11B           61.7739046712        7.8843246253       63.5762542223  MEMB      58              0.0000000000
      7686        64  POPS      P              59.3233387555        7.8244192199       64.8180764544  MEMB      58              0.0000000000
      7687        64  POPS      O13            58.5714424572        9.0429487318       64.4650379083  MEMB      58              0.0000000000
      7688        64  POPS      O14            58.7411296136        6.8881661070       65.8087137677  MEMB      58              0.0000000000
      7689        64  POPS      O12            60.7320423084        8.2973140645       65.3509629086  MEMB      58              0.0000000000
      7690        64  POPS      O11            59.6796847025        7.0466591521       63.4824289317  MEMB      58              0.0000000000
      7691        64  POPS      C1             59.0078286222        7.3534373715       62.2506150183  MEMB      58              0.0000000000
      7692        64  POPS      HA             58.0643206012        7.9332436347       62.3751773668  MEMB      58              0.0000000000
      7693        64  POPS      HB             58.6847935704        6.3998308146       61.7917171330  MEMB      58              0.0000000000
      7694        64  POPS      C2             59.9143338661        8.0507802216       61.1845440169  MEMB      58              0.0000000000
      7695        64  POPS      HS             59.5061899303        7.7887017602       60.1791105272  MEMB      58              0.0000000000
      7696        64  POPS      O21            61.2911784692        7.6399037285       61.2867390548  MEMB      58              0.0000000000
      7697        64  POPS      C21            61.5018319293        6.3578485784       61.0256303452  MEMB      58              0.0000000000
      7698        64  POPS      O22            60.6916570198        5.5933051271       60.5330495566  MEMB      58              0.0000000000
      7699        64  POPS      C22            62.9023421188        6.0117038663       61.5745177673  MEMB      58              0.0000000000
      7700        64  POPS      H2R            62.8152477476        5.0526417773       62.1195184316  MEMB      58              0.0000000000
      7701        64  POPS      H2S            63.1825838877        6.7709427893       62.3235114230  MEMB      58              0.0000000000
      7702        64  POPS      C3             59.8557964444        9.6005255649       61.2812080930  MEMB      58              0.0000000000
      7703        64  POPS      HX             60.3872491250        9.9448708503       62.1968461539  MEMB      58              0.0000000000
      7704        64  POPS      HY             58.7886234176        9.8942099653       61.4026066778  MEMB      58              0.0000000000
      7705        64  POPS      O31            60.3576557090       10.2020783076       60.0664555557  MEMB      58              0.0000000000
      7706        64  POPS      C31            61.6715579500       10.3516903962       59.9855378576  MEMB      58              0.0000000000
      7707        64  POPS      O32            62.4725521138       10.2107530434       60.9004640241  MEMB      58              0.0000000000
      7708        64  POPS      C32            62.0671000524       10.6551994691       58.5468255491  MEMB      58              0.0000000000
      7709        64  POPS      H2X            61.4902670987        9.9880141599       57.8727516788  MEMB      58              0.0000000000
      7710        64  POPS      H2Y            63.1450930167       10.3957713514       58.4711518069  MEMB      58              0.0000000000
      7711        64  POPS      C23            64.0495761273        5.9111049743       60.5333624155  MEMB      58              0.0000000000
      7712        64  POPS      H3R            64.0244018613        4.9163338907       60.0386647034  MEMB      58              0.0000000000
      7713        64  POPS      H3S            65.0225269509        5.9541838698       61.0759041266  MEMB      58              0.0000000000
      7714        64  POPS      C24            64.0355326046        7.0019406714       59.4537587500  MEMB      58              0.0000000000
      7715        64  POPS      H4R            64.1224629268        8.0026080935       59.9306659045  MEMB      58              0.0000000000
      7716        64  POPS      H4S            63.0621141700        6.9538777653       58.9155261654  MEMB      58              0.0000000000
      7717        64  POPS      C25            65.1664014545        6.8395650695       58.4212283575  MEMB      58              0.0000000000
      7718        64  POPS      H5R            64.9987799865        5.9003445458       57.8491288229  MEMB      58              0.0000000000
      7719        64  POPS      H5S            66.1299221549        6.7216716111       58.9654229099  MEMB      58              0.0000000000
      7720        64  POPS      C26            65.3047506573        8.0316027208       57.4490597318  MEMB      58              0.0000000000
      7721        64  POPS      H6R            66.1194675658        7.8073264814       56.7252134951  MEMB      58              0.0000000000
      7722        64  POPS      H6S            65.6260429927        8.9223768719       58.0379160839  MEMB      58              0.0000000000
      7723        64  POPS      C27            64.0166166325        8.3939616621       56.6852068106  MEMB      58              0.0000000000
      7724        64  POPS      H7R            64.1427403696        9.3829523713       56.1869852745  MEMB      58              0.0000000000
      7725        64  POPS      H7S            63.1955178268        8.5101222513       57.4234247754  MEMB      58              0.0000000000
      7726        64  POPS      C28            63.5540999796        7.3362426180       55.6707456306  MEMB      58              0.0000000000
      7727        64  POPS      H8R            62.4760434663        7.5210571884       55.4598283385  MEMB      58              0.0000000000
      7728        64  POPS      H8S            63.6159803231        6.3247163691       56.1266249170  MEMB      58              0.0000000000
      7729        64  POPS      C29            64.3902700201        7.4098216644       54.4209452589  MEMB      58              0.0000000000
      7730        64  POPS      H91            65.4807023151        7.4223768182       54.5772217807  MEMB      58              0.0000000000
      7731        64  POPS      C210           63.9141770790        7.4708753930       53.1694842502  MEMB      58              0.0000000000
      7732        64  POPS      H101           64.6348119247        7.5374434349       52.3406464933  MEMB      58              0.0000000000
      7733        64  POPS      C211           62.4524097489        7.4740862065       52.7940209659  MEMB      58              0.0000000000
      7734        64  POPS      H11R           61.8686226238        8.1244377610       53.4863645853  MEMB      58              0.0000000000
      7735        64  POPS      H11S           62.0128599752        6.4592707320       52.8930386968  MEMB      58              0.0000000000
      7736        64  POPS      C212           62.1905424416        8.0053311925       51.3733423722  MEMB      58              0.0000000000
      7737        64  POPS      H12R           62.3847464724        9.0972600706       51.4142675057  MEMB      58              0.0000000000
      7738        64  POPS      H12S           61.1095618874        7.8778675413       51.1420059990  MEMB      58              0.0000000000
      7739        64  POPS      C213           62.9788412836        7.3560543339       50.2184958642  MEMB      58              0.0000000000
      7740        64  POPS      H13R           62.6316774006        6.3063399477       50.0948664503  MEMB      58              0.0000000000
      7741        64  POPS      H13S           64.0703560501        7.3377310407       50.4161487990  MEMB      58              0.0000000000
      7742        64  POPS      C214           62.7543540556        8.0963289401       48.8964113326  MEMB      58              0.0000000000
      7743        64  POPS      H14R           61.6546048353        8.1624804160       48.7476414586  MEMB      58              0.0000000000
      7744        64  POPS      H14S           63.1734361976        7.5122531556       48.0468140243  MEMB      58              0.0000000000
      7745        64  POPS      C215           63.3723037838        9.4986708740       48.8902514431  MEMB      58              0.0000000000
      7746        64  POPS      H15R           64.4659065602        9.4171874788       48.7074120799  MEMB      58              0.0000000000
      7747        64  POPS      H15S           63.2698426229        9.9876062384       49.8802988509  MEMB      58              0.0000000000
      7748        64  POPS      C216           62.7465971916       10.4478762923       47.8667861555  MEMB      58              0.0000000000
      7749        64  POPS      H16R           62.9781749683       10.1095301855       46.8343617007  MEMB      58              0.0000000000
      7750        64  POPS      H16S           63.2282904509       11.4363247454       48.0295334831  MEMB      58              0.0000000000
      7751        64  POPS      C217           61.2310636396       10.6520831234       47.9761634202  MEMB      58              0.0000000000
      7752        64  POPS      H17R           60.7089289029        9.7274642076       47.6448564865  MEMB      58              0.0000000000
      7753        64  POPS      H17S           60.9637655157       11.4540088780       47.2541248744  MEMB      58              0.0000000000
      7754        64  POPS      C218           60.7351422281       11.0426128720       49.3702155367  MEMB      58              0.0000000000
      7755        64  POPS      H18R           59.6430617747       11.2454612059       49.3584172558  MEMB      58              0.0000000000
      7756        64  POPS      H18S           61.2610741874       11.9539439220       49.7270261171  MEMB      58              0.0000000000
      7757        64  POPS      H18T           60.9166785731       10.2259994866       50.0985905953  MEMB      58              0.0000000000
      7758        64  POPS      C33            61.8874405676       12.1272887120       58.1242261372  MEMB      58              0.0000000000
      7759        64  POPS      H3X            62.3551361404       12.7866769079       58.8929543631  MEMB      58              0.0000000000
      7760        64  POPS      H3Y            60.8108021870       12.3954685922       58.0563309183  MEMB      58              0.0000000000
      7761        64  POPS      C34            62.6058423831       12.3941584162       56.7942493876  MEMB      58              0.0000000000
      7762        64  POPS      H4X            63.5988024892       11.8962092673       56.8439605730  MEMB      58              0.0000000000
      7763        64  POPS      H4Y            62.7810398525       13.4872016669       56.6858562525  MEMB      58              0.0000000000
      7764        64  POPS      C35            61.8780935000       11.8887886767       55.5403136272  MEMB      58              0.0000000000
      7765        64  POPS      H5X            61.7133821591       10.7903918886       55.5999035197  MEMB      58              0.0000000000
      7766        64  POPS      H5Y            62.5452194398       12.0726784325       54.6657547312  MEMB      58              0.0000000000
      7767        64  POPS      C36            60.5397784117       12.5973915517       55.2930068580  MEMB      58              0.0000000000
      7768        64  POPS      H6X            60.5168032044       13.5075900498       55.9234872473  MEMB      58              0.0000000000
      7769        64  POPS      H6Y            59.7023875235       11.9597789702       55.6455421352  MEMB      58              0.0000000000
      7770        64  POPS      C37            60.3446572885       13.0288212802       53.8306158086  MEMB      58              0.0000000000
      7771        64  POPS      H7X            61.2917944330       13.4674484314       53.4448447511  MEMB      58              0.0000000000
      7772        64  POPS      H7Y            59.5636047910       13.8209506771       53.7699499197  MEMB      58              0.0000000000
      7773        64  POPS      C38            59.9178878955       11.8645457515       52.9324285535  MEMB      58              0.0000000000
      7774        64  POPS      H8X            60.5793327328       10.9958137040       53.1443541172  MEMB      58              0.0000000000
      7775        64  POPS      H8Y            60.0618123156       12.1460007612       51.8661066963  MEMB      58              0.0000000000
      7776        64  POPS      C39            58.4414971137       11.5054919229       53.1454321470  MEMB      58              0.0000000000
      7777        64  POPS      H9X            57.8142154374       12.3487319134       52.7931709260  MEMB      58              0.0000000000
      7778        64  POPS      H9Y            58.2412440685       11.3694005484       54.2312166004  MEMB      58              0.0000000000
      7779        64  POPS      C310           57.9950942794       10.2366245344       52.4212310685  MEMB      58              0.0000000000
      7780        64  POPS      H10X           58.0421396117       10.3899034467       51.3192873640  MEMB      58              0.0000000000
      7781        64  POPS      H10Y           56.9351045183       10.0501511936       52.6954971689  MEMB      58              0.0000000000
      7782        64  POPS      C311           58.8469808141        9.0267356453       52.8062745383  MEMB      58              0.0000000000
      7783        64  POPS      H11X           59.0831200612        9.0772471270       53.8949570496  MEMB      58              0.0000000000
      7784        64  POPS      H11Y           59.8088786273        9.0919008464       52.2573174858  MEMB      58              0.0000000000
      7785        64  POPS      C312           58.1857450166        7.6716200574       52.5360991699  MEMB      58              0.0000000000
      7786        64  POPS      H12X           57.4186919393        7.4931269025       53.3235701423  MEMB      58              0.0000000000
      7787        64  POPS      H12Y           58.9673198504        6.8956743210       52.6492184335  MEMB      58              0.0000000000
      7788        64  POPS      C313           57.5082119647        7.5157163320       51.1674011090  MEMB      58              0.0000000000
      7789        64  POPS      H13X           56.7657739116        8.3276574397       51.0298828975  MEMB      58              0.0000000000
      7790        64  POPS      H13Y           56.9450628384        6.5570570688       51.1680415358  MEMB      58              0.0000000000
      7791        64  POPS      C314           58.4640270496        7.5268154837       49.9690711666  MEMB      58              0.0000000000
      7792        64  POPS      H14X           59.2253451914        6.7249629726       50.0838505854  MEMB      58              0.0000000000
      7793        64  POPS      H14Y           58.9984077047        8.5033447865       49.9526906453  MEMB      58              0.0000000000
      7794        64  POPS      C315           57.7231676053        7.3505039384       48.6346249526  MEMB      58              0.0000000000
      7795        64  POPS      H15X           58.4062404475        7.6478923674       47.8106832106  MEMB      58              0.0000000000
      7796        64  POPS      H15Y           56.8661327299        8.0589539161       48.6054880984  MEMB      58              0.0000000000
      7797        64  POPS      C316           57.2269206681        5.9251104022       48.3755828114  MEMB      58              0.0000000000
      7798        64  POPS      H16X           58.0700406191        5.2035083381       48.4328214095  MEMB      58              0.0000000000
      7799        64  POPS      H16Y           56.7670248652        5.8441532548       47.3676030920  MEMB      58              0.0000000000
      7800        64  POPS      H16Z           56.4656005819        5.6305542035       49.1292620675  MEMB      58              0.0000000000
      7801        65  POPC      N               0.4545104222       14.5671823456       66.5205937638  MEMB      59              0.0000000000
      7802        65  POPC      C12             0.9017750824       13.3043791419       65.8000455137  MEMB      59              0.0000000000
      7803        65  POPC      H12A            0.7172081935       12.4364701155       66.4246289486  MEMB      59              0.0000000000
      7804        65  POPC      H12B            1.9755206222       13.3248619509       65.6251470089  MEMB      59              0.0000000000
      7805        65  POPC      C13            -1.0108500517       14.5551840731       66.7282905621  MEMB      59              0.0000000000
      7806        65  POPC      H13A           -1.3612478278       13.6542091847       67.2333920323  MEMB      59              0.0000000000
      7807        65  POPC      H13B           -1.3423332901       15.3936425836       67.3311024018  MEMB      59              0.0000000000
      7808        65  POPC      H13C           -1.4961496421       14.6045546199       65.7612867084  MEMB      59              0.0000000000
      7809        65  POPC      C14             1.1138416172       14.7407222112       67.8362234449  MEMB      59              0.0000000000
      7810        65  POPC      H14A            2.1938017936       14.6785080598       67.7408335853  MEMB      59              0.0000000000
      7811        65  POPC      H14B            0.8648233035       15.7267390395       68.2224742046  MEMB      59              0.0000000000
      7812        65  POPC      H14C            0.7916378880       13.9869583337       68.5527004042  MEMB      59              0.0000000000
      7813        65  POPC      C15             0.8009508659       15.7561627901       65.6660264090  MEMB      59              0.0000000000
      7814        65  POPC      H15A            1.8697886316       15.8330149445       65.5072659099  MEMB      59              0.0000000000
      7815        65  POPC      H15B            0.4440302302       16.6991646371       66.0456660788  MEMB      59              0.0000000000
      7816        65  POPC      H15C            0.4064351501       15.6072298134       64.6607375228  MEMB      59              0.0000000000
      7817        65  POPC      C11             0.2752057086       13.0799926174       64.4024921383  MEMB      59              0.0000000000
      7818        65  POPC      H11A           -0.8309357881       13.1488538983       64.4718025244  MEMB      59              0.0000000000
      7819        65  POPC      H11B            0.5048402831       12.0360397912       64.0787788560  MEMB      59              0.0000000000
      7820        65  POPC      P               2.1449229248       13.8180468594       62.7099834879  MEMB      59              0.0000000000
      7821        65  POPC      O13             2.8542795319       12.7523406965       63.4577962690  MEMB      59              0.0000000000
      7822        65  POPC      O14             2.8912945449       15.0801588115       62.5483703263  MEMB      59              0.0000000000
      7823        65  POPC      O12             0.7478854113       14.0523782884       63.4613576332  MEMB      59              0.0000000000
      7824        65  POPC      O11             1.6687451018       13.2491665608       61.3290906985  MEMB      59              0.0000000000
      7825        65  POPC      C1              0.8791824508       12.0614024004       61.3057108401  MEMB      59              0.0000000000
      7826        65  POPC      HA             -0.0943668243       12.2191847187       61.8208935829  MEMB      59              0.0000000000
      7827        65  POPC      HB              1.4097286847       11.2169932348       61.8051374078  MEMB      59              0.0000000000
      7828        65  POPC      C2              0.5893745170       11.7085054930       59.8347758847  MEMB      59              0.0000000000
      7829        65  POPC      HS              0.0684408665       10.7251525921       59.7750828185  MEMB      59              0.0000000000
      7830        65  POPC      O21             1.8061730290       11.6897669185       59.0664434269  MEMB      59              0.0000000000
      7831        65  POPC      C21             2.6249352408       10.7287267214       59.4311949557  MEMB      59              0.0000000000
      7832        65  POPC      O22             2.3173778678        9.7410967072       60.0781595937  MEMB      59              0.0000000000
      7833        65  POPC      C22             4.0189598297       10.9835240995       58.8747003244  MEMB      59              0.0000000000
      7834        65  POPC      H2R             4.7231132262       10.9070282307       59.7297898895  MEMB      59              0.0000000000
      7835        65  POPC      H2S             4.0730298754       12.0077048079       58.4531824593  MEMB      59              0.0000000000
      7836        65  POPC      C3             -0.3540499022       12.7748463894       59.2417102140  MEMB      59              0.0000000000
      7837        65  POPC      HX              0.0912715906       13.7863848783       59.4065347247  MEMB      59              0.0000000000
      7838        65  POPC      HY             -1.3104632725       12.7488206334       59.8054725114  MEMB      59              0.0000000000
      7839        65  POPC      O31            -0.6151083795       12.4666607223       57.8644915570  MEMB      59              0.0000000000
      7840        65  POPC      C31             0.1578540232       13.1006893032       56.9964178983  MEMB      59              0.0000000000
      7841        65  POPC      O32             0.9169713594       14.0175344275       57.2417195352  MEMB      59              0.0000000000
      7842        65  POPC      C32            -0.1147826852       12.5170311914       55.6105827079  MEMB      59              0.0000000000
      7843        65  POPC      H2X            -1.2122193425       12.5221945641       55.4509409447  MEMB      59              0.0000000000
      7844        65  POPC      H2Y             0.2433743505       11.4689243787       55.5956242443  MEMB      59              0.0000000000
      7845        65  POPC      C23             4.3654503029        9.9247621626       57.8132657887  MEMB      59              0.0000000000
      7846        65  POPC      H3R             4.1491612242        8.9029227051       58.2059486814  MEMB      59              0.0000000000
      7847        65  POPC      H3S             5.4582955788        9.9705739346       57.5980056788  MEMB      59              0.0000000000
      7848        65  POPC      C24             3.6083833359       10.1595269657       56.5023895708  MEMB      59              0.0000000000
      7849        65  POPC      H4R             3.9485527882       11.1281277646       56.0676358574  MEMB      59              0.0000000000
      7850        65  POPC      H4S             2.5133983965       10.2383662579       56.6856166558  MEMB      59              0.0000000000
      7851        65  POPC      C25             3.8704789658        9.0325140627       55.5044171169  MEMB      59              0.0000000000
      7852        65  POPC      H5R             3.3003552452        8.1219595031       55.7951531217  MEMB      59              0.0000000000
      7853        65  POPC      H5S             4.9557630683        8.7782150345       55.5613793255  MEMB      59              0.0000000000
      7854        65  POPC      C26             3.5635034934        9.4184380628       54.0539273594  MEMB      59              0.0000000000
      7855        65  POPC      H6R             4.1267291581        8.6958246764       53.4232752374  MEMB      59              0.0000000000
      7856        65  POPC      H6S             3.9698755067       10.4295623633       53.8281802795  MEMB      59              0.0000000000
      7857        65  POPC      C27             2.0736085481        9.3482758389       53.6756435938  MEMB      59              0.0000000000
      7858        65  POPC      H7R             1.5010947936       10.0491982842       54.3213271158  MEMB      59              0.0000000000
      7859        65  POPC      H7S             1.6992694705        8.3212454810       53.8913783022  MEMB      59              0.0000000000
      7860        65  POPC      C28             1.7944442080        9.6924900585       52.1937752053  MEMB      59              0.0000000000
      7861        65  POPC      H8R             2.0608377482       10.7564688464       52.0038698941  MEMB      59              0.0000000000
      7862        65  POPC      H8S             0.7047321459        9.5774381560       51.9992940563  MEMB      59              0.0000000000
      7863        65  POPC      C29             2.5962591062        8.7784060553       51.3102325817  MEMB      59              0.0000000000
      7864        65  POPC      H91             2.9932687008        7.8935773647       51.8274847436  MEMB      59              0.0000000000
      7865        65  POPC      C210            2.9229086333        8.9241928583       50.0214428239  MEMB      59              0.0000000000
      7866        65  POPC      H101            3.6053553465        8.1835799507       49.5803418996  MEMB      59              0.0000000000
      7867        65  POPC      C211            2.5819526959       10.0362102020       49.0869632979  MEMB      59              0.0000000000
      7868        65  POPC      H11R            3.1933993904       10.9237455151       49.3612930393  MEMB      59              0.0000000000
      7869        65  POPC      H11S            1.5092908730       10.3153900044       49.1783888608  MEMB      59              0.0000000000
      7870        65  POPC      C212            2.8734995870        9.6682673642       47.6164024667  MEMB      59              0.0000000000
      7871        65  POPC      H12R            1.9052720203        9.5151759655       47.0996174429  MEMB      59              0.0000000000
      7872        65  POPC      H12S            3.4366496103        8.7147358458       47.5043240620  MEMB      59              0.0000000000
      7873        65  POPC      C213            3.6607058852       10.7589902826       46.8848681108  MEMB      59              0.0000000000
      7874        65  POPC      H13R            4.7489018082       10.5488172797       46.9828583159  MEMB      59              0.0000000000
      7875        65  POPC      H13S            3.4783746154       11.7439602731       47.3673748659  MEMB      59              0.0000000000
      7876        65  POPC      C214            3.2828964636       10.9063246873       45.4065617688  MEMB      59              0.0000000000
      7877        65  POPC      H14R            2.2304974047       11.2597643141       45.3372829983  MEMB      59              0.0000000000
      7878        65  POPC      H14S            3.3630155563        9.9271651142       44.8853271362  MEMB      59              0.0000000000
      7879        65  POPC      C215            4.2121090142       11.9280322651       44.7562361245  MEMB      59              0.0000000000
      7880        65  POPC      H15R            5.2335040226       11.4918751630       44.7870765020  MEMB      59              0.0000000000
      7881        65  POPC      H15S            4.1998155581       12.8501934354       45.3778560011  MEMB      59              0.0000000000
      7882        65  POPC      C216            3.8861934178       12.3481092041       43.3227017494  MEMB      59              0.0000000000
      7883        65  POPC      H16R            3.8110044278       11.4627019083       42.6556117587  MEMB      59              0.0000000000
      7884        65  POPC      H16S            4.7522365346       12.9658774353       42.9854567737  MEMB      59              0.0000000000
      7885        65  POPC      C217            2.6424815851       13.2359224171       43.2046992140  MEMB      59              0.0000000000
      7886        65  POPC      H17R            2.8947374950       14.0981345471       42.5433716447  MEMB      59              0.0000000000
      7887        65  POPC      H17S            2.3898982045       13.6434359023       44.2094162215  MEMB      59              0.0000000000
      7888        65  POPC      C218            1.4283450799       12.5290776767       42.6115661825  MEMB      59              0.0000000000
      7889        65  POPC      H18R            0.5706161934       13.2211928631       42.4846811081  MEMB      59              0.0000000000
      7890        65  POPC      H18S            1.1055211706       11.6978842937       43.2683542225  MEMB      59              0.0000000000
      7891        65  POPC      H18T            1.6887134939       12.1117821705       41.6167629207  MEMB      59              0.0000000000
      7892        65  POPC      C33             0.5415393233       13.3404900707       54.4889248443  MEMB      59              0.0000000000
      7893        65  POPC      H3X             0.3214672233       14.4229172318       54.6316694490  MEMB      59              0.0000000000
      7894        65  POPC      H3Y             0.0773369140       13.0329457748       53.5249880462  MEMB      59              0.0000000000
      7895        65  POPC      C34             2.0586816083       13.1302197623       54.3861690891  MEMB      59              0.0000000000
      7896        65  POPC      H4X             2.2799246801       12.1215286519       53.9803948760  MEMB      59              0.0000000000
      7897        65  POPC      H4Y             2.5080317209       13.1941363036       55.4042433911  MEMB      59              0.0000000000
      7898        65  POPC      C35             2.7353574397       14.1884812794       53.5076760258  MEMB      59              0.0000000000
      7899        65  POPC      H5X             3.8379110517       14.0334372454       53.5279850686  MEMB      59              0.0000000000
      7900        65  POPC      H5Y             2.5201874810       15.1771928512       53.9744612476  MEMB      59              0.0000000000
      7901        65  POPC      C36             2.2461462587       14.2061410031       52.0525223014  MEMB      59              0.0000000000
      7902        65  POPC      H6X             1.9267402424       15.2348257649       51.7734536223  MEMB      59              0.0000000000
      7903        65  POPC      H6Y             1.3541397449       13.5557964338       51.9416057987  MEMB      59              0.0000000000
      7904        65  POPC      C37             3.3146623973       13.7431529516       51.0561620802  MEMB      59              0.0000000000
      7905        65  POPC      H7X             3.5475009806       12.6716694171       51.2562157979  MEMB      59              0.0000000000
      7906        65  POPC      H7Y             4.2500838928       14.3237739308       51.2177083541  MEMB      59              0.0000000000
      7907        65  POPC      C38             2.8698872746       13.9079830700       49.5960999892  MEMB      59              0.0000000000
      7908        65  POPC      H8X             3.6964435702       13.5293445992       48.9504681173  MEMB      59              0.0000000000
      7909        65  POPC      H8Y             2.7224883514       14.9804320849       49.3465455042  MEMB      59              0.0000000000
      7910        65  POPC      C39             1.5974265347       13.1189783039       49.2560211680  MEMB      59              0.0000000000
      7911        65  POPC      H9X             1.4649809969       12.2921596391       49.9876739013  MEMB      59              0.0000000000
      7912        65  POPC      H9Y             1.7522762915       12.6577735258       48.2556494787  MEMB      59              0.0000000000
      7913        65  POPC      C310            0.2970174383       13.9298080198       49.1983177208  MEMB      59              0.0000000000
      7914        65  POPC      H10X            0.4915307385       14.9023942323       48.6977251546  MEMB      59              0.0000000000
      7915        65  POPC      H10Y           -0.0456552184       14.1466481316       50.2328557111  MEMB      59              0.0000000000
      7916        65  POPC      C311           -0.7984526333       13.1674445258       48.4291656349  MEMB      59              0.0000000000
      7917        65  POPC      H11X           -1.7967409915       13.5769393182       48.7013030913  MEMB      59              0.0000000000
      7918        65  POPC      H11Y           -0.7759175840       12.0935184761       48.7182544662  MEMB      59              0.0000000000
      7919        65  POPC      C312           -0.6083539086       13.3158695554       46.9137037329  MEMB      59              0.0000000000
      7920        65  POPC      H12X            0.4469331905       13.0838646598       46.6465360144  MEMB      59              0.0000000000
      7921        65  POPC      H12Y           -0.8095286453       14.3753733018       46.6872823551  MEMB      59              0.0000000000
      7922        65  POPC      C313           -1.5212917450       12.4869206226       46.0093967704  MEMB      59              0.0000000000
      7923        65  POPC      H13X           -1.5323177179       11.4431849807       46.3825415590  MEMB      59              0.0000000000
      7924        65  POPC      H13Y           -1.0817086699       12.4574878229       44.9850966655  MEMB      59              0.0000000000
      7925        65  POPC      C314           -2.9496446347       13.0419791359       45.9028586575  MEMB      59              0.0000000000
      7926        65  POPC      H14X           -3.3790286609       13.2195557185       46.9126234842  MEMB      59              0.0000000000
      7927        65  POPC      H14Y           -3.5705717887       12.2606304114       45.4102245671  MEMB      59              0.0000000000
      7928        65  POPC      C315           -3.0566409717       14.3334091881       45.0848293532  MEMB      59              0.0000000000
      7929        65  POPC      H15X           -2.3664785756       14.2618442542       44.2135556118  MEMB      59              0.0000000000
      7930        65  POPC      H15Y           -2.7228208148       15.1970071867       45.7011613548  MEMB      59              0.0000000000
      7931        65  POPC      C316           -4.4715030170       14.5963170821       44.5767475355  MEMB      59              0.0000000000
      7932        65  POPC      H16X           -4.9299047342       13.6472171555       44.2209935270  MEMB      59              0.0000000000
      7933        65  POPC      H16Y           -4.4537748358       15.3079108555       43.7256887183  MEMB      59              0.0000000000
      7934        65  POPC      H16Z           -5.1103922851       15.0215431568       45.3823057034  MEMB      59              0.0000000000
      7935        66  POPC      N              52.3471823449        2.5918000181       64.8290901235  MEMB      60              0.0000000000
      7936        66  POPC      C12            53.7561353969        2.3571999374       64.3564873687  MEMB      60              0.0000000000
      7937        66  POPC      H12A           54.4277324392        2.7098751207       65.1447091369  MEMB      60              0.0000000000
      7938        66  POPC      H12B           53.9889965191        2.9578904368       63.4876607881  MEMB      60              0.0000000000
      7939        66  POPC      C13            51.3862380551        2.4544725044       63.6953619126  MEMB      60              0.0000000000
      7940        66  POPC      H13A           50.3685242331        2.5458661052       64.0761240908  MEMB      60              0.0000000000
      7941        66  POPC      H13B           51.4945493914        3.2162844441       62.9429914199  MEMB      60              0.0000000000
      7942        66  POPC      H13C           51.4286985975        1.4747684800       63.2321590224  MEMB      60              0.0000000000
      7943        66  POPC      C14            51.9531142099        1.5804879785       65.8392742817  MEMB      60              0.0000000000
      7944        66  POPC      H14A           51.9655563434        0.5819885128       65.3896643032  MEMB      60              0.0000000000
      7945        66  POPC      H14B           52.6800679354        1.5097649459       66.6394274677  MEMB      60              0.0000000000
      7946        66  POPC      H14C           50.9581091818        1.7496211368       66.2294772595  MEMB      60              0.0000000000
      7947        66  POPC      C15            52.2194329810        3.9550307423       65.4223715822  MEMB      60              0.0000000000
      7948        66  POPC      H15A           52.8910424858        4.0709692036       66.2584655207  MEMB      60              0.0000000000
      7949        66  POPC      H15B           51.1987314532        4.1244793170       65.7825011708  MEMB      60              0.0000000000
      7950        66  POPC      H15C           52.3714045196        4.7230841814       64.6775090944  MEMB      60              0.0000000000
      7951        66  POPC      C11            54.1600633496        0.8945852628       64.0553772969  MEMB      60              0.0000000000
      7952        66  POPC      H11A           54.8612664152        0.8828855173       63.1857313912  MEMB      60              0.0000000000
      7953        66  POPC      H11B           53.2707488135        0.2987989011       63.7465000460  MEMB      60              0.0000000000
      7954        66  POPC      P              56.0431694433        1.0057127670       65.8202288781  MEMB      60              0.0000000000
      7955        66  POPC      O13            57.0239441129        0.0229575496       66.3313279646  MEMB      60              0.0000000000
      7956        66  POPC      O14            55.4688273305        1.9590220398       66.8095210703  MEMB      60              0.0000000000
      7957        66  POPC      O12            54.7720533491        0.2999569000       65.2058829837  MEMB      60              0.0000000000
      7958        66  POPC      O11            56.5467780753        1.8613585932       64.5956602190  MEMB      60              0.0000000000
      7959        66  POPC      C1             57.2559511811        3.0918038002       64.7740857551  MEMB      60              0.0000000000
      7960        66  POPC      HA             58.3287471265        2.8873454797       64.9959114747  MEMB      60              0.0000000000
      7961        66  POPC      HB             56.8252088109        3.6902963088       65.6147364964  MEMB      60              0.0000000000
      7962        66  POPC      C2             57.1840233743        4.0375628752       63.5316407222  MEMB      60              0.0000000000
      7963        66  POPC      HS             57.4302611881        5.0598606536       63.9190443173  MEMB      60              0.0000000000
      7964        66  POPC      O21            55.8580681903        3.9888061383       62.9424605709  MEMB      60              0.0000000000
      7965        66  POPC      C21            55.6478405505        5.0276089671       62.1548669477  MEMB      60              0.0000000000
      7966        66  POPC      O22            55.9617856416        6.1797483137       62.4104461173  MEMB      60              0.0000000000
      7967        66  POPC      C22            54.9616566465        4.5614952457       60.8782850087  MEMB      60              0.0000000000
      7968        66  POPC      H2R            53.8643953850        4.6333122637       60.9905903837  MEMB      60              0.0000000000
      7969        66  POPC      H2S            55.2377344232        3.4987520169       60.6947451244  MEMB      60              0.0000000000
      7970        66  POPC      C3             58.2663397735        3.6993367280       62.4330732039  MEMB      60              0.0000000000
      7971        66  POPC      HX             59.2526596369        3.8430606046       62.9277529531  MEMB      60              0.0000000000
      7972        66  POPC      HY             58.2185764867        4.4537277388       61.6195064035  MEMB      60              0.0000000000
      7973        66  POPC      O31            58.2165769716        2.3511701617       61.9174955729  MEMB      60              0.0000000000
      7974        66  POPC      C31            58.0371703017        2.1566276365       60.6266238247  MEMB      60              0.0000000000
      7975        66  POPC      O32            57.7343434603        3.0181909241       59.8174440221  MEMB      60              0.0000000000
      7976        66  POPC      C32            58.2497358321        0.6800704067       60.2916314668  MEMB      60              0.0000000000
      7977        66  POPC      H2X            57.8132362993        0.0456000565       61.0892996105  MEMB      60              0.0000000000
      7978        66  POPC      H2Y            59.3483582969        0.5147300757       60.2970057097  MEMB      60              0.0000000000
      7979        66  POPC      C23            55.4680070989        5.3949673580       59.6875950876  MEMB      60              0.0000000000
      7980        66  POPC      H3R            56.5859447770        5.3863318186       59.6728728838  MEMB      60              0.0000000000
      7981        66  POPC      H3S            55.1458930902        6.4562889852       59.7753032348  MEMB      60              0.0000000000
      7982        66  POPC      C24            55.0014064417        4.8204618324       58.3502286739  MEMB      60              0.0000000000
      7983        66  POPC      H4R            53.8914465239        4.8964481297       58.3084169889  MEMB      60              0.0000000000
      7984        66  POPC      H4S            55.2814260959        3.7445787791       58.2746110683  MEMB      60              0.0000000000
      7985        66  POPC      C25            55.5957130801        5.5846915017       57.1633199998  MEMB      60              0.0000000000
      7986        66  POPC      H5R            55.6680183427        6.6648016640       57.4170310706  MEMB      60              0.0000000000
      7987        66  POPC      H5S            54.9024338076        5.4770157207       56.3056746633  MEMB      60              0.0000000000
      7988        66  POPC      C26            56.9454432444        5.0503694369       56.6782102990  MEMB      60              0.0000000000
      7989        66  POPC      H6R            57.5295790087        4.6534412432       57.5380203924  MEMB      60              0.0000000000
      7990        66  POPC      H6S            57.5247419608        5.8838113561       56.2199343539  MEMB      60              0.0000000000
      7991        66  POPC      C27            56.7353897158        3.9630978259       55.6174524299  MEMB      60              0.0000000000
      7992        66  POPC      H7R            56.2062978850        4.3910846232       54.7375784574  MEMB      60              0.0000000000
      7993        66  POPC      H7S            56.0735677320        3.1804051110       56.0561348674  MEMB      60              0.0000000000
      7994        66  POPC      C28            58.0258095764        3.2802404249       55.1593949868  MEMB      60              0.0000000000
      7995        66  POPC      H8R            57.7373502369        2.3753145493       54.5778328336  MEMB      60              0.0000000000
      7996        66  POPC      H8S            58.5319341578        2.9024112245       56.0738117096  MEMB      60              0.0000000000
      7997        66  POPC      C29            58.9751662104        4.1375882007       54.3583768108  MEMB      60              0.0000000000
      7998        66  POPC      H91            59.7201987199        4.6865183068       54.9547482429  MEMB      60              0.0000000000
      7999        66  POPC      C210           58.9501387735        4.3225456553       53.0275229788  MEMB      60              0.0000000000
      8000        66  POPC      H101           59.7403150226        4.9316533190       52.5589271151  MEMB      60              0.0000000000
      8001        66  POPC      C211           57.9586339398        3.7145871788       52.0737770012  MEMB      60              0.0000000000
      8002        66  POPC      H11R           57.2568873372        4.5027221513       51.7233535504  MEMB      60              0.0000000000
      8003        66  POPC      H11S           57.3330894112        2.9550321810       52.5815968416  MEMB      60              0.0000000000
      8004        66  POPC      C212           58.5636282386        3.0455885010       50.8333173485  MEMB      60              0.0000000000
      8005        66  POPC      H12R           59.2142052180        2.1960169461       51.1435335846  MEMB      60              0.0000000000
      8006        66  POPC      H12S           59.1924689562        3.7698641598       50.2696357163  MEMB      60              0.0000000000
      8007        66  POPC      C213           57.4414910689        2.5210043151       49.9267407514  MEMB      60              0.0000000000
      8008        66  POPC      H13R           56.7979888804        3.3648101599       49.5992057084  MEMB      60              0.0000000000
      8009        66  POPC      H13S           56.8041794211        1.8262389270       50.5205660306  MEMB      60              0.0000000000
      8010        66  POPC      C214           57.9513285678        1.7714517558       48.6984806455  MEMB      60              0.0000000000
      8011        66  POPC      H14R           58.5621087166        0.9208022230       49.0666414398  MEMB      60              0.0000000000
      8012        66  POPC      H14S           58.6176714113        2.4174446852       48.0879157078  MEMB      60              0.0000000000
      8013        66  POPC      C215           56.8160907595        1.2043878809       47.8337992720  MEMB      60              0.0000000000
      8014        66  POPC      H15R           55.9586297720        0.8931113064       48.4683626025  MEMB      60              0.0000000000
      8015        66  POPC      H15S           57.1959426186        0.2753719274       47.3621934091  MEMB      60              0.0000000000
      8016        66  POPC      C216           56.3464015193        2.1522580782       46.7199146598  MEMB      60              0.0000000000
      8017        66  POPC      H16R           57.1717076774        2.8501756190       46.4521764426  MEMB      60              0.0000000000
      8018        66  POPC      H16S           55.5060596463        2.7728562284       47.1020220866  MEMB      60              0.0000000000
      8019        66  POPC      C217           55.9165399398        1.4219777234       45.4352302365  MEMB      60              0.0000000000
      8020        66  POPC      H17R           56.8341662781        1.0921534286       44.8949846614  MEMB      60              0.0000000000
      8021        66  POPC      H17S           55.3888845690        2.1487550713       44.7765573382  MEMB      60              0.0000000000
      8022        66  POPC      C218           55.0288053911        0.1935830229       45.6573319877  MEMB      60              0.0000000000
      8023        66  POPC      H18R           54.6333295579       -0.1879375807       44.6928624083  MEMB      60              0.0000000000
      8024        66  POPC      H18S           54.1756820907        0.4331408555       46.3161920438  MEMB      60              0.0000000000
      8025        66  POPC      H18T           55.6026412878       -0.6237056858       46.1432327172  MEMB      60              0.0000000000
      8026        66  POPC      C33            57.6599496922        0.3330932035       58.9033568200  MEMB      60              0.0000000000
      8027        66  POPC      H3X            57.8569037590        1.1743017676       58.2012064403  MEMB      60              0.0000000000
      8028        66  POPC      H3Y            56.5576265428        0.2192604281       59.0052483193  MEMB      60              0.0000000000
      8029        66  POPC      C34            58.2556866063       -0.9341388903       58.2770965547  MEMB      60              0.0000000000
      8030        66  POPC      H4X            58.1628751884       -1.7432834501       59.0259747389  MEMB      60              0.0000000000
      8031        66  POPC      H4Y            59.3431102699       -0.7882242414       58.0927917212  MEMB      60              0.0000000000
      8032        66  POPC      C35            57.5505104304       -1.3395412306       56.9695078089  MEMB      60              0.0000000000
      8033        66  POPC      H5X            56.4534899100       -1.3553872955       57.1555458091  MEMB      60              0.0000000000
      8034        66  POPC      H5Y            57.8467719081       -2.3732089043       56.6839543209  MEMB      60              0.0000000000
      8035        66  POPC      C36            57.8923670974       -0.3837031678       55.8125658098  MEMB      60              0.0000000000
      8036        66  POPC      H6X            58.9536221869       -0.5436597847       55.5123140087  MEMB      60              0.0000000000
      8037        66  POPC      H6Y            57.8084099336        0.6641544004       56.1710556222  MEMB      60              0.0000000000
      8038        66  POPC      C37            56.9852204019       -0.5095742640       54.5793137090  MEMB      60              0.0000000000
      8039        66  POPC      H7X            56.9941849684       -1.5548609268       54.2023628904  MEMB      60              0.0000000000
      8040        66  POPC      H7Y            57.4044446519        0.1393990025       53.7759733144  MEMB      60              0.0000000000
      8041        66  POPC      C38            55.5409625604       -0.0581871466       54.8531122676  MEMB      60              0.0000000000
      8042        66  POPC      H8X            55.5407696019        0.9311107395       55.3615539057  MEMB      60              0.0000000000
      8043        66  POPC      H8Y            55.0690345430       -0.7924795185       55.5448933164  MEMB      60              0.0000000000
      8044        66  POPC      C39            54.6900414044        0.0224046003       53.5790245419  MEMB      60              0.0000000000
      8045        66  POPC      H9X            53.6359892127       -0.2399571033       53.8259501408  MEMB      60              0.0000000000
      8046        66  POPC      H9Y            55.0736508850       -0.7245044938       52.8517186631  MEMB      60              0.0000000000
      8047        66  POPC      C310           54.6920813990        1.3935547471       52.8911013171  MEMB      60              0.0000000000
      8048        66  POPC      H10X           55.7429720650        1.7065353780       52.7309906719  MEMB      60              0.0000000000
      8049        66  POPC      H10Y           54.2073077558        2.1461102535       53.5510131047  MEMB      60              0.0000000000
      8050        66  POPC      C311           53.9747314786        1.3275339322       51.5339977128  MEMB      60              0.0000000000
      8051        66  POPC      H11X           52.9876489091        0.8358092174       51.6854349161  MEMB      60              0.0000000000
      8052        66  POPC      H11Y           54.5690918015        0.6845151979       50.8454960692  MEMB      60              0.0000000000
      8053        66  POPC      C312           53.7487009538        2.6956327322       50.8749227515  MEMB      60              0.0000000000
      8054        66  POPC      H12X           54.7011881907        3.2725667359       50.8940207617  MEMB      60              0.0000000000
      8055        66  POPC      H12Y           53.0074339456        3.2626816436       51.4766623889  MEMB      60              0.0000000000
      8056        66  POPC      C313           53.2672435650        2.6007079162       49.4121595150  MEMB      60              0.0000000000
      8057        66  POPC      H13X           54.1069515783        2.1996827255       48.8025308482  MEMB      60              0.0000000000
      8058        66  POPC      H13Y           53.0436123379        3.6228955951       49.0364681657  MEMB      60              0.0000000000
      8059        66  POPC      C314           52.0443086758        1.6916509042       49.1831887940  MEMB      60              0.0000000000
      8060        66  POPC      H14X           51.1649176163        2.0797290952       49.7410253137  MEMB      60              0.0000000000
      8061        66  POPC      H14Y           52.2842906799        0.6784646823       49.5790744640  MEMB      60              0.0000000000
      8062        66  POPC      C315           51.6873537631        1.5150573105       47.6961771017  MEMB      60              0.0000000000
      8063        66  POPC      H15X           51.0659549192        0.5976302083       47.5818413323  MEMB      60              0.0000000000
      8064        66  POPC      H15Y           52.6276573609        1.3461007170       47.1348828727  MEMB      60              0.0000000000
      8065        66  POPC      C316           50.9480945295        2.6891752380       47.0526423567  MEMB      60              0.0000000000
      8066        66  POPC      H16X           49.9749395879        2.8622014215       47.5594002693  MEMB      60              0.0000000000
      8067        66  POPC      H16Y           50.7548802208        2.4864690652       45.9771807170  MEMB      60              0.0000000000
      8068        66  POPC      H16Z           51.5616811956        3.6114936824       47.1231628096  MEMB      60              0.0000000000
      8069        67  POPC      N              10.1942655291        1.6748708144       66.5693610316  MEMB      61              0.0000000000
      8070        67  POPC      C12            11.6118105661        1.2105819532       66.2587095453  MEMB      61              0.0000000000
      8071        67  POPC      H12A           11.6573150850        0.1409691221       66.4338518922  MEMB      61              0.0000000000
      8072        67  POPC      H12B           12.2733517523        1.6882957325       66.9649038996  MEMB      61              0.0000000000
      8073        67  POPC      C13            10.0623079746        3.1647988107       66.5174482204  MEMB      61              0.0000000000
      8074        67  POPC      H13A            9.0167192830        3.4716872535       66.5406796751  MEMB      61              0.0000000000
      8075        67  POPC      H13B           10.5509481193        3.6506343856       67.3526347090  MEMB      61              0.0000000000
      8076        67  POPC      H13C           10.4922631421        3.5307887737       65.5888304635  MEMB      61              0.0000000000
      8077        67  POPC      C14             9.2694191712        1.0858850655       65.5621787576  MEMB      61              0.0000000000
      8078        67  POPC      H14A            9.2812038845        0.0078537973       65.5840858644  MEMB      61              0.0000000000
      8079        67  POPC      H14B            8.2540992261        1.4439642667       65.6945975036  MEMB      61              0.0000000000
      8080        67  POPC      H14C            9.6115145667        1.3805552492       64.5689521161  MEMB      61              0.0000000000
      8081        67  POPC      C15             9.7816377974        1.2058293243       67.9106526226  MEMB      61              0.0000000000
      8082        67  POPC      H15A            8.6982718093        1.2333873229       68.0010188045  MEMB      61              0.0000000000
      8083        67  POPC      H15B           10.2347297079        1.8055899110       68.6908224245  MEMB      61              0.0000000000
      8084        67  POPC      H15C           10.0467628422        0.1665371230       68.0930314072  MEMB      61              0.0000000000
      8085        67  POPC      C11            12.1756020553        1.4254304005       64.8255161298  MEMB      61              0.0000000000
      8086        67  POPC      H11A           13.2606819920        1.1730706958       64.8248518856  MEMB      61              0.0000000000
      8087        67  POPC      H11B           12.1199496299        2.5177679852       64.5842543161  MEMB      61              0.0000000000
      8088        67  POPC      P              11.3377845113        1.1373151105       62.3921987592  MEMB      61              0.0000000000
      8089        67  POPC      O13            10.5635656650        0.1978272279       61.5617144782  MEMB      61              0.0000000000
      8090        67  POPC      O14            12.6953556017        1.5052196357       61.9280313930  MEMB      61              0.0000000000
      8091        67  POPC      O12            11.5108639659        0.5774132012       63.8648423469  MEMB      61              0.0000000000
      8092        67  POPC      O11            10.5112105494        2.4177425315       62.8114941175  MEMB      61              0.0000000000
      8093        67  POPC      C1              9.2375767014        2.7439062609       62.2910631041  MEMB      61              0.0000000000
      8094        67  POPC      HA              8.6414390576        3.2559523561       63.0789743769  MEMB      61              0.0000000000
      8095        67  POPC      HB              8.6666955286        1.8415447002       61.9724214424  MEMB      61              0.0000000000
      8096        67  POPC      C2              9.3781839463        3.7065248496       61.0976920075  MEMB      61              0.0000000000
      8097        67  POPC      HS              8.3554527946        3.9012520707       60.7297862082  MEMB      61              0.0000000000
      8098        67  POPC      O21            10.2246574509        3.0867061623       60.1106577046  MEMB      61              0.0000000000
      8099        67  POPC      C21             9.7326809603        2.9146528002       58.9051579916  MEMB      61              0.0000000000
      8100        67  POPC      O22             8.6727522774        3.3534552781       58.4925402216  MEMB      61              0.0000000000
      8101        67  POPC      C22            10.7070148146        2.1205796061       58.0347020871  MEMB      61              0.0000000000
      8102        67  POPC      H2R            10.1303797678        1.2940652757       57.5851559687  MEMB      61              0.0000000000
      8103        67  POPC      H2S            11.5033866071        1.6802428841       58.6694295349  MEMB      61              0.0000000000
      8104        67  POPC      C3              9.9642909365        5.0819122422       61.5229953197  MEMB      61              0.0000000000
      8105        67  POPC      HX             10.9341605739        4.8837020481       62.0353983685  MEMB      61              0.0000000000
      8106        67  POPC      HY              9.2979758559        5.5887243095       62.2581640139  MEMB      61              0.0000000000
      8107        67  POPC      O31            10.2035779764        5.8999679994       60.3650215180  MEMB      61              0.0000000000
      8108        67  POPC      C31             9.1228772918        6.3744080977       59.7511581275  MEMB      61              0.0000000000
      8109        67  POPC      O32             8.0083672167        6.4705230314       60.2306473798  MEMB      61              0.0000000000
      8110        67  POPC      C32             9.4873574814        6.6005975588       58.2718987082  MEMB      61              0.0000000000
      8111        67  POPC      H2X             8.9388865029        5.8299036696       57.6906723217  MEMB      61              0.0000000000
      8112        67  POPC      H2Y            10.5722366043        6.4042184544       58.1456781862  MEMB      61              0.0000000000
      8113        67  POPC      C23            11.2893339047        2.9635920349       56.8792623262  MEMB      61              0.0000000000
      8114        67  POPC      H3R            12.3828307749        3.0697262041       57.0499267147  MEMB      61              0.0000000000
      8115        67  POPC      H3S            10.8662475220        3.9925681262       56.8833635942  MEMB      61              0.0000000000
      8116        67  POPC      C24            11.0944919601        2.3596240067       55.4733211136  MEMB      61              0.0000000000
      8117        67  POPC      H4R            11.7118035611        1.4366617424       55.3905796995  MEMB      61              0.0000000000
      8118        67  POPC      H4S            11.4993982927        3.0979005221       54.7498352976  MEMB      61              0.0000000000
      8119        67  POPC      C25             9.6555249427        2.0297291701       55.0244989642  MEMB      61              0.0000000000
      8120        67  POPC      H5R             9.2967184651        1.1170889982       55.5476550472  MEMB      61              0.0000000000
      8121        67  POPC      H5S             9.6964067836        1.7768712798       53.9386190034  MEMB      61              0.0000000000
      8122        67  POPC      C26             8.6274061615        3.1576445744       55.2229470353  MEMB      61              0.0000000000
      8123        67  POPC      H6R             9.1241562839        4.0675458028       55.6197063317  MEMB      61              0.0000000000
      8124        67  POPC      H6S             7.8796678120        2.8361708571       55.9830514038  MEMB      61              0.0000000000
      8125        67  POPC      C27             7.8941574486        3.5538426127       53.9280097274  MEMB      61              0.0000000000
      8126        67  POPC      H7R             7.5364957298        2.6404238586       53.4084983112  MEMB      61              0.0000000000
      8127        67  POPC      H7S             8.6380225807        4.0313822397       53.2582854168  MEMB      61              0.0000000000
      8128        67  POPC      C28             6.7007284321        4.5046212470       54.1906252299  MEMB      61              0.0000000000
      8129        67  POPC      H8R             6.8026021072        4.8280178214       55.2521229600  MEMB      61              0.0000000000
      8130        67  POPC      H8S             5.7567432598        3.9182317853       54.1615612363  MEMB      61              0.0000000000
      8131        67  POPC      C29             6.5501623382        5.7540249750       53.3517808110  MEMB      61              0.0000000000
      8132        67  POPC      H91             6.2441156938        6.6320210956       53.9414069340  MEMB      61              0.0000000000
      8133        67  POPC      C210            6.7341595147        5.9325260186       52.0284258353  MEMB      61              0.0000000000
      8134        67  POPC      H101            6.6100174701        6.9475262384       51.6206980921  MEMB      61              0.0000000000
      8135        67  POPC      C211            7.1453645206        4.9188258010       50.9924760819  MEMB      61              0.0000000000
      8136        67  POPC      H11R            6.4900192657        5.0139909780       50.0977321051  MEMB      61              0.0000000000
      8137        67  POPC      H11S            7.0357487818        3.8787518450       51.3641914348  MEMB      61              0.0000000000
      8138        67  POPC      C212            8.6065390698        5.0940244449       50.5517403432  MEMB      61              0.0000000000
      8139        67  POPC      H12R            9.2807728542        4.9038127327       51.4143439377  MEMB      61              0.0000000000
      8140        67  POPC      H12S            8.7954473564        6.1404611400       50.2258853569  MEMB      61              0.0000000000
      8141        67  POPC      C213            8.9907430261        4.1324880048       49.4179177355  MEMB      61              0.0000000000
      8142        67  POPC      H13R            8.3898642331        4.3641909746       48.5116971909  MEMB      61              0.0000000000
      8143        67  POPC      H13S            8.7520667658        3.0891651176       49.7247316731  MEMB      61              0.0000000000
      8144        67  POPC      C214           10.4863335163        4.2307090338       49.1052875008  MEMB      61              0.0000000000
      8145        67  POPC      H14R           11.0496253861        3.9316320565       50.0187204317  MEMB      61              0.0000000000
      8146        67  POPC      H14S           10.7452854548        5.2902758702       48.8832630062  MEMB      61              0.0000000000
      8147        67  POPC      C215           10.9550001899        3.3488434187       47.9432093279  MEMB      61              0.0000000000
      8148        67  POPC      H15R           10.7070304530        2.2841204571       48.1445111487  MEMB      61              0.0000000000
      8149        67  POPC      H15S           12.0658167632        3.4354717670       47.8952881033  MEMB      61              0.0000000000
      8150        67  POPC      C216           10.4092893861        3.7682202539       46.5757840405  MEMB      61              0.0000000000
      8151        67  POPC      H16R           10.4537583313        4.8792223867       46.5074890805  MEMB      61              0.0000000000
      8152        67  POPC      H16S            9.3448365877        3.4790721115       46.4799155427  MEMB      61              0.0000000000
      8153        67  POPC      C217           11.2490738233        3.1896847878       45.4275489996  MEMB      61              0.0000000000
      8154        67  POPC      H17R           12.2979552424        3.5072016838       45.6148048037  MEMB      61              0.0000000000
      8155        67  POPC      H17S           10.9100009052        3.6516745293       44.4729361265  MEMB      61              0.0000000000
      8156        67  POPC      C218           11.2511778017        1.6706340408       45.2572729404  MEMB      61              0.0000000000
      8157        67  POPC      H18R           10.4891017787        1.3850370307       44.5068777391  MEMB      61              0.0000000000
      8158        67  POPC      H18S           11.0287847236        1.1525090590       46.2127169100  MEMB      61              0.0000000000
      8159        67  POPC      H18T           12.2342229688        1.3163541605       44.8802121722  MEMB      61              0.0000000000
      8160        67  POPC      C33             9.1609386001        7.9951595729       57.6936071718  MEMB      61              0.0000000000
      8161        67  POPC      H3X             9.5316753781        8.7928760708       58.3812715720  MEMB      61              0.0000000000
      8162        67  POPC      H3Y             8.0571859109        8.1152008564       57.6010564341  MEMB      61              0.0000000000
      8163        67  POPC      C34             9.8207240545        8.1932250869       56.3134185599  MEMB      61              0.0000000000
      8164        67  POPC      H4X            10.9221690984        8.1368590545       56.4395702301  MEMB      61              0.0000000000
      8165        67  POPC      H4Y             9.5659247868        9.2133299670       55.9492040679  MEMB      61              0.0000000000
      8166        67  POPC      C35             9.4286987372        7.1570101035       55.2447859685  MEMB      61              0.0000000000
      8167        67  POPC      H5X             8.3167659903        7.0963787324       55.2442992430  MEMB      61              0.0000000000
      8168        67  POPC      H5Y             9.8151405246        6.1531603295       55.5160376816  MEMB      61              0.0000000000
      8169        67  POPC      C36             9.8804723050        7.5171998789       53.8131432231  MEMB      61              0.0000000000
      8170        67  POPC      H6X             9.8023069954        8.6155527819       53.6724388134  MEMB      61              0.0000000000
      8171        67  POPC      H6Y             9.1733482439        7.0416926854       53.0957001209  MEMB      61              0.0000000000
      8172        67  POPC      C37            11.2971368541        7.0858776959       53.3891867471  MEMB      61              0.0000000000
      8173        67  POPC      H7X            12.0641070606        7.5664327666       54.0279426982  MEMB      61              0.0000000000
      8174        67  POPC      H7Y            11.4492331969        7.4589731020       52.3488070500  MEMB      61              0.0000000000
      8175        67  POPC      C38            11.5360416944        5.5713689673       53.3887776437  MEMB      61              0.0000000000
      8176        67  POPC      H8X            10.5842666811        5.0436763481       53.1676161223  MEMB      61              0.0000000000
      8177        67  POPC      H8Y            11.8520801756        5.2604163743       54.4080036103  MEMB      61              0.0000000000
      8178        67  POPC      C39            12.5912637287        5.1350294183       52.3573944794  MEMB      61              0.0000000000
      8179        67  POPC      H9X            13.5312798986        5.6981602215       52.5372646628  MEMB      61              0.0000000000
      8180        67  POPC      H9Y            12.2358998047        5.4100429425       51.3391001129  MEMB      61              0.0000000000
      8181        67  POPC      C310           12.8593578528        3.6210920950       52.3983403172  MEMB      61              0.0000000000
      8182        67  POPC      H10X           11.9094917197        3.1043627867       52.1382647533  MEMB      61              0.0000000000
      8183        67  POPC      H10Y           13.1361459168        3.3203266357       53.4327950008  MEMB      61              0.0000000000
      8184        67  POPC      C311           13.9837217730        3.1586955003       51.4589516299  MEMB      61              0.0000000000
      8185        67  POPC      H11X           14.9582865684        3.3697563671       51.9501737527  MEMB      61              0.0000000000
      8186        67  POPC      H11Y           13.9403926692        3.7379440892       50.5099197420  MEMB      61              0.0000000000
      8187        67  POPC      C312           13.9495495094        1.6588393088       51.1249067997  MEMB      61              0.0000000000
      8188        67  POPC      H12X           13.8485552136        1.0662623126       52.0600823833  MEMB      61              0.0000000000
      8189        67  POPC      H12Y           14.9224351110        1.3877985781       50.6551553373  MEMB      61              0.0000000000
      8190        67  POPC      C313           12.8230010686        1.3077364772       50.1472290136  MEMB      61              0.0000000000
      8191        67  POPC      H13X           12.8956383956        1.9831360820       49.2701638387  MEMB      61              0.0000000000
      8192        67  POPC      H13Y           11.8424055913        1.5103436885       50.6344925725  MEMB      61              0.0000000000
      8193        67  POPC      C314           12.8296927673       -0.1503387484       49.6655286546  MEMB      61              0.0000000000
      8194        67  POPC      H14X           11.8730265989       -0.3100975454       49.1147721698  MEMB      61              0.0000000000
      8195        67  POPC      H14Y           12.8400886436       -0.8288998463       50.5470710650  MEMB      61              0.0000000000
      8196        67  POPC      C315           13.9679216185       -0.5312557611       48.7087151557  MEMB      61              0.0000000000
      8197        67  POPC      H15X           13.8473663417       -1.6092529280       48.4484594920  MEMB      61              0.0000000000
      8198        67  POPC      H15Y           14.9470631510       -0.4191872918       49.2247825080  MEMB      61              0.0000000000
      8199        67  POPC      C316           13.9752891236        0.2848603354       47.4150739068  MEMB      61              0.0000000000
      8200        67  POPC      H16X           14.7281453998       -0.1127180642       46.7048926971  MEMB      61              0.0000000000
      8201        67  POPC      H16Y           14.2198396889        1.3484551478       47.6232361080  MEMB      61              0.0000000000
      8202        67  POPC      H16Z           12.9783089417        0.2396668203       46.9299276130  MEMB      61              0.0000000000
      8203        68  POPC      N              -2.3662652696       55.9676779276       64.0659334329  MEMB      62              0.0000000000
      8204        68  POPC      C12            -3.2431570940       56.8542370109       64.9528062891  MEMB      62              0.0000000000
      8205        68  POPC      H12A           -3.7585567651       56.2155429190       65.6709318193  MEMB      62              0.0000000000
      8206        68  POPC      H12B           -4.0239321150       57.3335424829       64.3756248769  MEMB      62              0.0000000000
      8207        68  POPC      C13            -1.5892364545       55.0510241441       64.9658366475  MEMB      62              0.0000000000
      8208        68  POPC      H13A           -1.2891692066       55.6225174550       65.8474704542  MEMB      62              0.0000000000
      8209        68  POPC      H13B           -2.1936972709       54.2095148571       65.2821366457  MEMB      62              0.0000000000
      8210        68  POPC      H13C           -0.6926314268       54.6856504080       64.4891827775  MEMB      62              0.0000000000
      8211        68  POPC      C14            -3.1949422286       55.1419233736       63.1391856201  MEMB      62              0.0000000000
      8212        68  POPC      H14A           -3.7032742314       55.7559553458       62.4095776118  MEMB      62              0.0000000000
      8213        68  POPC      H14B           -2.5735756844       54.4219394596       62.6212896821  MEMB      62              0.0000000000
      8214        68  POPC      H14C           -3.9554395714       54.5997892940       63.7058433488  MEMB      62              0.0000000000
      8215        68  POPC      C15            -1.4076823955       56.8168584405       63.3062232148  MEMB      62              0.0000000000
      8216        68  POPC      H15A           -1.8965065009       57.5850623811       62.7252032779  MEMB      62              0.0000000000
      8217        68  POPC      H15B           -0.7467991250       56.2474193883       62.6703646421  MEMB      62              0.0000000000
      8218        68  POPC      H15C           -0.7693768660       57.3394376502       64.0228743469  MEMB      62              0.0000000000
      8219        68  POPC      C11            -2.5367687749       57.9752586371       65.7662769275  MEMB      62              0.0000000000
      8220        68  POPC      H11A           -3.3086687432       58.4631762654       66.4022492927  MEMB      62              0.0000000000
      8221        68  POPC      H11B           -2.1597940463       58.7605475439       65.0697337520  MEMB      62              0.0000000000
      8222        68  POPC      P              -0.0509045262       58.0422522010       66.6859932252  MEMB      62              0.0000000000
      8223        68  POPC      O13             0.8749910667       56.9346974126       67.0676967781  MEMB      62              0.0000000000
      8224        68  POPC      O14            -0.1088759427       59.1986219361       67.6058482828  MEMB      62              0.0000000000
      8225        68  POPC      O12            -1.5214142391       57.4456492882       66.6102817854  MEMB      62              0.0000000000
      8226        68  POPC      O11             0.2193748762       58.5246657968       65.1848464366  MEMB      62              0.0000000000
      8227        68  POPC      C1              0.8402364637       59.7839317069       64.8943352953  MEMB      62              0.0000000000
      8228        68  POPC      HA              1.9088217822       59.6160437056       64.6478479521  MEMB      62              0.0000000000
      8229        68  POPC      HB              0.8311610065       60.4786141612       65.7702625315  MEMB      62              0.0000000000
      8230        68  POPC      C2              0.1570091778       60.5778745756       63.7258802462  MEMB      62              0.0000000000
      8231        68  POPC      HS             -0.3704901700       61.4245145957       64.2240005693  MEMB      62              0.0000000000
      8232        68  POPC      O21            -0.7912727591       59.7564670776       62.9827423495  MEMB      62              0.0000000000
      8233        68  POPC      C21            -1.6970351582       60.5171342492       62.3211059807  MEMB      62              0.0000000000
      8234        68  POPC      O22            -1.7377479199       61.7304738219       62.4183268165  MEMB      62              0.0000000000
      8235        68  POPC      C22            -2.4704928946       59.6901674589       61.2907067838  MEMB      62              0.0000000000
      8236        68  POPC      H2R            -3.1827592924       59.0183822848       61.8043396037  MEMB      62              0.0000000000
      8237        68  POPC      H2S            -1.7226773966       59.0676007146       60.7583297213  MEMB      62              0.0000000000
      8238        68  POPC      C3              1.2138769513       61.2054218583       62.7193082732  MEMB      62              0.0000000000
      8239        68  POPC      HX              1.4237596334       62.2095535935       63.1421618724  MEMB      62              0.0000000000
      8240        68  POPC      HY              0.6759322760       61.3839080496       61.7598717393  MEMB      62              0.0000000000
      8241        68  POPC      O31             2.4692714991       60.4737797083       62.4925279104  MEMB      62              0.0000000000
      8242        68  POPC      C31             3.1144762336       60.9448244298       61.3793750687  MEMB      62              0.0000000000
      8243        68  POPC      O32             2.6929385787       61.8864448864       60.7297916554  MEMB      62              0.0000000000
      8244        68  POPC      C32             4.5108463577       60.3082231236       61.0970416315  MEMB      62              0.0000000000
      8245        68  POPC      H2X             4.6355679008       59.4027882052       61.6962111026  MEMB      62              0.0000000000
      8246        68  POPC      H2Y             5.2358570463       61.0565318665       61.4860633154  MEMB      62              0.0000000000
      8247        68  POPC      C23            -3.2124219047       60.5965195177       60.2707792712  MEMB      62              0.0000000000
      8248        68  POPC      H3R            -2.7186127764       61.5940733365       60.2047888154  MEMB      62              0.0000000000
      8249        68  POPC      H3S            -4.2479654705       60.7997118342       60.6291420339  MEMB      62              0.0000000000
      8250        68  POPC      C24            -3.2314820212       60.0311805723       58.8365243614  MEMB      62              0.0000000000
      8251        68  POPC      H4R            -4.2545691173       59.6569556585       58.6266613692  MEMB      62              0.0000000000
      8252        68  POPC      H4S            -2.5330601532       59.1692174331       58.7631257971  MEMB      62              0.0000000000
      8253        68  POPC      C25            -2.8349688913       61.0564049284       57.7553669286  MEMB      62              0.0000000000
      8254        68  POPC      H5R            -1.9216041208       61.6004533860       58.0926995956  MEMB      62              0.0000000000
      8255        68  POPC      H5S            -3.6407849258       61.8187137764       57.6548950176  MEMB      62              0.0000000000
      8256        68  POPC      C26            -2.5440806274       60.4385213094       56.3702997585  MEMB      62              0.0000000000
      8257        68  POPC      H6R            -1.6724714100       59.7505651510       56.4265112377  MEMB      62              0.0000000000
      8258        68  POPC      H6S            -2.2718230494       61.2570098990       55.6699065718  MEMB      62              0.0000000000
      8259        68  POPC      C27            -3.6888039660       59.6128330458       55.7687700778  MEMB      62              0.0000000000
      8260        68  POPC      H7R            -4.6551510698       60.1474518787       55.8975425372  MEMB      62              0.0000000000
      8261        68  POPC      H7S            -3.7511594367       58.6613646803       56.3443698989  MEMB      62              0.0000000000
      8262        68  POPC      C28            -3.4426885573       59.2617503224       54.2873819585  MEMB      62              0.0000000000
      8263        68  POPC      H8R            -4.0713199312       58.3876350944       54.0138457333  MEMB      62              0.0000000000
      8264        68  POPC      H8S            -2.3866309163       58.9318628707       54.1785676862  MEMB      62              0.0000000000
      8265        68  POPC      C29            -3.7936251939       60.4045800070       53.3697491988  MEMB      62              0.0000000000
      8266        68  POPC      H91            -4.8260055927       60.7702485474       53.4805203714  MEMB      62              0.0000000000
      8267        68  POPC      C210           -3.0049388439       60.9846987469       52.4494948831  MEMB      62              0.0000000000
      8268        68  POPC      H101           -3.4218005304       61.7988578102       51.8362761213  MEMB      62              0.0000000000
      8269        68  POPC      C211           -1.5804058490       60.6339681182       52.1127411402  MEMB      62              0.0000000000
      8270        68  POPC      H11R           -1.6290763264       59.9835203055       51.2217347651  MEMB      62              0.0000000000
      8271        68  POPC      H11S           -1.0865807044       60.0354263244       52.9107191744  MEMB      62              0.0000000000
      8272        68  POPC      C212           -0.6938294050       61.8738459367       51.8506470207  MEMB      62              0.0000000000
      8273        68  POPC      H12R           -0.1160604756       62.0769500131       52.7790158616  MEMB      62              0.0000000000
      8274        68  POPC      H12S           -1.3180036489       62.7802998077       51.7091268381  MEMB      62              0.0000000000
      8275        68  POPC      C213            0.2770026409       61.7984206677       50.6489063362  MEMB      62              0.0000000000
      8276        68  POPC      H13R            1.2713783574       62.1866216151       50.9628147698  MEMB      62              0.0000000000
      8277        68  POPC      H13S           -0.0674432913       62.4820545606       49.8496095253  MEMB      62              0.0000000000
      8278        68  POPC      C214            0.4616837332       60.4269416333       49.9888422394  MEMB      62              0.0000000000
      8279        68  POPC      H14R           -0.4997438093       60.1055278421       49.5270561745  MEMB      62              0.0000000000
      8280        68  POPC      H14S            0.7573482098       59.6709899967       50.7483068822  MEMB      62              0.0000000000
      8281        68  POPC      C215            1.4974308878       60.4806739074       48.8661780417  MEMB      62              0.0000000000
      8282        68  POPC      H15R            2.5037263174       60.6451231552       49.3065106220  MEMB      62              0.0000000000
      8283        68  POPC      H15S            1.2759325361       61.3581353042       48.2259679592  MEMB      62              0.0000000000
      8284        68  POPC      C216            1.4950947160       59.2227370116       47.9929342642  MEMB      62              0.0000000000
      8285        68  POPC      H16R            2.3086197583       59.3108692830       47.2377997290  MEMB      62              0.0000000000
      8286        68  POPC      H16S            0.5337655072       59.1497442919       47.4358454045  MEMB      62              0.0000000000
      8287        68  POPC      C217            1.6950669704       57.9458954747       48.8121207763  MEMB      62              0.0000000000
      8288        68  POPC      H17R            0.7468049748       57.6911391539       49.3357598734  MEMB      62              0.0000000000
      8289        68  POPC      H17S            2.4618740774       58.1231163088       49.5993817069  MEMB      62              0.0000000000
      8290        68  POPC      C218            2.1391546056       56.7663244101       47.9606950393  MEMB      62              0.0000000000
      8291        68  POPC      H18R            1.3590306377       56.5116992216       47.2117336897  MEMB      62              0.0000000000
      8292        68  POPC      H18S            2.3045969592       55.8875713988       48.6155062997  MEMB      62              0.0000000000
      8293        68  POPC      H18T            3.0889593098       56.9920284122       47.4301468950  MEMB      62              0.0000000000
      8294        68  POPC      C33             4.9356647007       60.0190406943       59.5992551605  MEMB      62              0.0000000000
      8295        68  POPC      H3X             6.0487751119       60.0218047365       59.5642982868  MEMB      62              0.0000000000
      8296        68  POPC      H3Y             4.6020503402       60.8420034991       58.9369563355  MEMB      62              0.0000000000
      8297        68  POPC      C34             4.5065438149       58.6351631772       59.0423742491  MEMB      62              0.0000000000
      8298        68  POPC      H4X             3.4068886009       58.5955185816       59.1253800336  MEMB      62              0.0000000000
      8299        68  POPC      H4Y             4.9158699166       57.8264909769       59.6863711094  MEMB      62              0.0000000000
      8300        68  POPC      C35             4.7415534330       58.2649773807       57.5536961888  MEMB      62              0.0000000000
      8301        68  POPC      H5X             5.5922792925       57.5561224885       57.4655458465  MEMB      62              0.0000000000
      8302        68  POPC      H5Y             4.9932171925       59.1783008355       56.9748631861  MEMB      62              0.0000000000
      8303        68  POPC      C36             3.4500636967       57.6125257253       56.9784694310  MEMB      62              0.0000000000
      8304        68  POPC      H6X             2.6570155457       58.3539247863       57.1140960940  MEMB      62              0.0000000000
      8305        68  POPC      H6Y             3.1265618613       56.7773572350       57.6212929977  MEMB      62              0.0000000000
      8306        68  POPC      C37             3.4048624851       57.2124650567       55.4887328377  MEMB      62              0.0000000000
      8307        68  POPC      H7X             4.1010338210       56.3766334611       55.3164725454  MEMB      62              0.0000000000
      8308        68  POPC      H7Y             3.7479790770       58.0653017713       54.8646241619  MEMB      62              0.0000000000
      8309        68  POPC      C38             2.0088525035       56.7560276490       54.9907947107  MEMB      62              0.0000000000
      8310        68  POPC      H8X             1.2371931097       57.4835212632       55.3192315210  MEMB      62              0.0000000000
      8311        68  POPC      H8Y             1.7629313608       55.7780227170       55.4592126854  MEMB      62              0.0000000000
      8312        68  POPC      C39             1.9493350691       56.6183533700       53.4567217159  MEMB      62              0.0000000000
      8313        68  POPC      H9X             2.7928983944       55.9693681379       53.1339796696  MEMB      62              0.0000000000
      8314        68  POPC      H9Y             2.1072722111       57.6199844834       53.0006245698  MEMB      62              0.0000000000
      8315        68  POPC      C310            0.6499244458       56.0351554795       52.8650531814  MEMB      62              0.0000000000
      8316        68  POPC      H10X            0.4340683134       55.0333581406       53.2944716074  MEMB      62              0.0000000000
      8317        68  POPC      H10Y            0.8369905418       55.8926022053       51.7740310206  MEMB      62              0.0000000000
      8318        68  POPC      C311           -0.5735664853       56.9543252283       53.0147183317  MEMB      62              0.0000000000
      8319        68  POPC      H11X           -0.2170107861       57.9643780647       53.3205829432  MEMB      62              0.0000000000
      8320        68  POPC      H11Y           -1.2326991167       56.5742982848       53.8249305258  MEMB      62              0.0000000000
      8321        68  POPC      C312           -1.3944763982       57.1383689938       51.7216877557  MEMB      62              0.0000000000
      8322        68  POPC      H12X           -0.7551484482       57.6113204739       50.9465622727  MEMB      62              0.0000000000
      8323        68  POPC      H12Y           -2.2265024431       57.8454246187       51.9393055434  MEMB      62              0.0000000000
      8324        68  POPC      C313           -2.0062411014       55.8462171707       51.1641239665  MEMB      62              0.0000000000
      8325        68  POPC      H13X           -2.5159202584       55.3365450819       52.0077639140  MEMB      62              0.0000000000
      8326        68  POPC      H13Y           -1.2046513303       55.1706381219       50.7968845879  MEMB      62              0.0000000000
      8327        68  POPC      C314           -3.0589969018       56.0830202782       50.0645052453  MEMB      62              0.0000000000
      8328        68  POPC      H14X           -3.8547136711       56.7469934065       50.4730228432  MEMB      62              0.0000000000
      8329        68  POPC      H14Y           -3.5352722130       55.1074357091       49.8167967137  MEMB      62              0.0000000000
      8330        68  POPC      C315           -2.5137975843       56.6974046533       48.7645453236  MEMB      62              0.0000000000
      8331        68  POPC      H15X           -2.0267974936       57.6731750030       48.9895810874  MEMB      62              0.0000000000
      8332        68  POPC      H15Y           -3.3771386442       56.9121554865       48.0918567008  MEMB      62              0.0000000000
      8333        68  POPC      C316           -1.5298105841       55.7954214905       48.0145754143  MEMB      62              0.0000000000
      8334        68  POPC      H16X           -0.6236918002       55.6094797520       48.6290173113  MEMB      62              0.0000000000
      8335        68  POPC      H16Y           -1.2078514188       56.2668941064       47.0616771581  MEMB      62              0.0000000000
      8336        68  POPC      H16Z           -2.0002685575       54.8177460618       47.7767372893  MEMB      62              0.0000000000
      8337        69  POPC      N               3.5716876304       64.2212175276       63.5562880045  MEMB      63              0.0000000000
      8338        69  POPC      C12             3.6596779406       62.8624574054       64.2463692621  MEMB      63              0.0000000000
      8339        69  POPC      H12A            4.7058125812       62.5833479210       64.3602241309  MEMB      63              0.0000000000
      8340        69  POPC      H12B            3.2144370681       62.0895764488       63.6308448775  MEMB      63              0.0000000000
      8341        69  POPC      C13             4.4287881133       65.2110088165       64.2791619286  MEMB      63              0.0000000000
      8342        69  POPC      H13A            4.2907627015       66.2252564580       63.9214553158  MEMB      63              0.0000000000
      8343        69  POPC      H13B            4.1491733646       65.2062242525       65.3340564225  MEMB      63              0.0000000000
      8344        69  POPC      H13C            5.4777290652       64.9540771102       64.2129197751  MEMB      63              0.0000000000
      8345        69  POPC      C14             4.0143242014       64.0716829124       62.1397134122  MEMB      63              0.0000000000
      8346        69  POPC      H14A            3.3292389336       63.4344393790       61.5896646749  MEMB      63              0.0000000000
      8347        69  POPC      H14B            3.9903599823       65.0255846094       61.6220540687  MEMB      63              0.0000000000
      8348        69  POPC      H14C            5.0111196151       63.6606672194       62.0328344387  MEMB      63              0.0000000000
      8349        69  POPC      C15             2.1599492107       64.7586453964       63.5772333583  MEMB      63              0.0000000000
      8350        69  POPC      H15A            1.7643067960       64.7828493631       64.5972782069  MEMB      63              0.0000000000
      8351        69  POPC      H15B            1.5048692921       64.1774485348       62.9427314289  MEMB      63              0.0000000000
      8352        69  POPC      H15C            2.1055422168       65.7841486507       63.2149464683  MEMB      63              0.0000000000
      8353        69  POPC      C11             3.0279313149       62.7226803623       65.6406053041  MEMB      63              0.0000000000
      8354        69  POPC      H11A            2.9047067483       61.6279031923       65.8505046578  MEMB      63              0.0000000000
      8355        69  POPC      H11B            1.9978202028       63.1335917216       65.6732143862  MEMB      63              0.0000000000
      8356        69  POPC      P               4.9360344038       62.5010571487       67.3497156990  MEMB      63              0.0000000000
      8357        69  POPC      O13             4.2173225538       61.4845539738       68.1453280239  MEMB      63              0.0000000000
      8358        69  POPC      O14             5.8504777397       63.3808869307       68.1140859256  MEMB      63              0.0000000000
      8359        69  POPC      O12             3.8451109975       63.3929716618       66.5965941411  MEMB      63              0.0000000000
      8360        69  POPC      O11             5.6956860056       61.7396068094       66.1618646272  MEMB      63              0.0000000000
      8361        69  POPC      C1              5.7143456893       60.2925720414       66.1732507502  MEMB      63              0.0000000000
      8362        69  POPC      HA              4.6829410224       59.8878651987       66.0502154968  MEMB      63              0.0000000000
      8363        69  POPC      HB              6.1094354578       59.9038707218       67.1422111505  MEMB      63              0.0000000000
      8364        69  POPC      C2              6.5975902208       59.6733699201       65.0415129593  MEMB      63              0.0000000000
      8365        69  POPC      HS              7.5806689550       59.3908738585       65.4847015679  MEMB      63              0.0000000000
      8366        69  POPC      O21             6.7850132221       60.6516870119       64.0047553948  MEMB      63              0.0000000000
      8367        69  POPC      C21             7.7400770547       61.5563181860       64.2609203362  MEMB      63              0.0000000000
      8368        69  POPC      O22             8.6750417017       61.4342690198       65.0334466929  MEMB      63              0.0000000000
      8369        69  POPC      C22             7.4699066682       62.7343976879       63.3398146885  MEMB      63              0.0000000000
      8370        69  POPC      H2R             6.3760382586       62.8264504805       63.1995822714  MEMB      63              0.0000000000
      8371        69  POPC      H2S             7.9258014174       62.4924224294       62.3560939637  MEMB      63              0.0000000000
      8372        69  POPC      C3              6.0081400714       58.3373896300       64.4259727559  MEMB      63              0.0000000000
      8373        69  POPC      HX              6.1064578616       57.5344087288       65.1932463133  MEMB      63              0.0000000000
      8374        69  POPC      HY              6.7200787262       58.0977603952       63.6017645775  MEMB      63              0.0000000000
      8375        69  POPC      O31             4.6231710836       58.3676344255       63.9644554438  MEMB      63              0.0000000000
      8376        69  POPC      C31             4.3586001944       57.3775795407       63.0610476603  MEMB      63              0.0000000000
      8377        69  POPC      O32             5.2233379587       56.7384677720       62.4885335621  MEMB      63              0.0000000000
      8378        69  POPC      C32             2.8442110936       57.1886325957       62.8239109137  MEMB      63              0.0000000000
      8379        69  POPC      H2X             2.3131522615       57.9572664310       63.4105911354  MEMB      63              0.0000000000
      8380        69  POPC      H2Y             2.5596358915       56.1921022129       63.2182596371  MEMB      63              0.0000000000
      8381        69  POPC      C23             8.0219240904       64.0891128963       63.8296375182  MEMB      63              0.0000000000
      8382        69  POPC      H3R             9.0393555792       63.9529817797       64.2674436857  MEMB      63              0.0000000000
      8383        69  POPC      H3S             7.3643674323       64.5199329582       64.6134914321  MEMB      63              0.0000000000
      8384        69  POPC      C24             8.1898557732       65.0738818437       62.6627703930  MEMB      63              0.0000000000
      8385        69  POPC      H4R             9.0849827736       64.7148924127       62.1068946596  MEMB      63              0.0000000000
      8386        69  POPC      H4S             8.4515264450       66.0911492818       63.0260547529  MEMB      63              0.0000000000
      8387        69  POPC      C25             7.0127225544       65.1587033739       61.6815580930  MEMB      63              0.0000000000
      8388        69  POPC      H5R             6.2434873799       65.8339100473       62.1090845876  MEMB      63              0.0000000000
      8389        69  POPC      H5S             6.5747142230       64.1570930563       61.5008819641  MEMB      63              0.0000000000
      8390        69  POPC      C26             7.4107446679       65.6483815452       60.2895692384  MEMB      63              0.0000000000
      8391        69  POPC      H6R             8.0076956406       66.5835557955       60.3877574447  MEMB      63              0.0000000000
      8392        69  POPC      H6S             6.4871154910       65.8851697857       59.7127388371  MEMB      63              0.0000000000
      8393        69  POPC      C27             8.2309246157       64.6001702306       59.5192779490  MEMB      63              0.0000000000
      8394        69  POPC      H7R             7.6156677317       63.6974948396       59.3213883871  MEMB      63              0.0000000000
      8395        69  POPC      H7S             9.1049359142       64.2840963434       60.1336073108  MEMB      63              0.0000000000
      8396        69  POPC      C28             8.8074788388       65.1620809582       58.2179115687  MEMB      63              0.0000000000
      8397        69  POPC      H8R             9.4524889307       64.3945877483       57.7340292839  MEMB      63              0.0000000000
      8398        69  POPC      H8S             9.4756847317       65.9928445150       58.5242731823  MEMB      63              0.0000000000
      8399        69  POPC      C29             7.7252461626       65.6311031217       57.2884506467  MEMB      63              0.0000000000
      8400        69  POPC      H91             7.5421999628       66.7185235182       57.2705469023  MEMB      63              0.0000000000
      8401        69  POPC      C210            6.9771015828       64.8157725065       56.5318476730  MEMB      63              0.0000000000
      8402        69  POPC      H101            6.2375615562       65.2719447999       55.8602658921  MEMB      63              0.0000000000
      8403        69  POPC      C211            7.0852882586       63.3082441228       56.4703208344  MEMB      63              0.0000000000
      8404        69  POPC      H11R            6.3462735570       62.8493500862       57.1645240615  MEMB      63              0.0000000000
      8405        69  POPC      H11S            8.0928144730       62.9604376469       56.7932442447  MEMB      63              0.0000000000
      8406        69  POPC      C212            6.8296220136       62.7177561677       55.0674406189  MEMB      63              0.0000000000
      8407        69  POPC      H12R            5.7468866799       62.7822671840       54.8333353152  MEMB      63              0.0000000000
      8408        69  POPC      H12S            7.0741449181       61.6322795918       55.0712559343  MEMB      63              0.0000000000
      8409        69  POPC      C213            7.5970585392       63.4062561808       53.9335060141  MEMB      63              0.0000000000
      8410        69  POPC      H13R            8.6534685404       63.0614178054       53.9266115593  MEMB      63              0.0000000000
      8411        69  POPC      H13S            7.6186372019       64.5082866086       54.0751287703  MEMB      63              0.0000000000
      8412        69  POPC      C214            6.9477352159       63.1479313680       52.5711840601  MEMB      63              0.0000000000
      8413        69  POPC      H14R            5.8707167959       63.4238041390       52.5916689714  MEMB      63              0.0000000000
      8414        69  POPC      H14S            7.0066582008       62.0562390791       52.3631026873  MEMB      63              0.0000000000
      8415        69  POPC      C215            7.6507336777       63.9368879216       51.4644146794  MEMB      63              0.0000000000
      8416        69  POPC      H15R            8.5936079422       64.3439435895       51.8931222513  MEMB      63              0.0000000000
      8417        69  POPC      H15S            7.0367081302       64.8072740394       51.1445512720  MEMB      63              0.0000000000
      8418        69  POPC      C216            7.9773359635       63.0428956810       50.2695941560  MEMB      63              0.0000000000
      8419        69  POPC      H16R            7.0504295526       62.8466967246       49.6873148811  MEMB      63              0.0000000000
      8420        69  POPC      H16S            8.3556619288       62.0667132258       50.6539065716  MEMB      63              0.0000000000
      8421        69  POPC      C217            9.0519950478       63.6138219329       49.3498958378  MEMB      63              0.0000000000
      8422        69  POPC      H17R            8.6728574837       64.5403175799       48.8622447252  MEMB      63              0.0000000000
      8423        69  POPC      H17S            9.2276038254       62.8499492207       48.5563931940  MEMB      63              0.0000000000
      8424        69  POPC      C218           10.3730473940       63.9096968915       50.0614093194  MEMB      63              0.0000000000
      8425        69  POPC      H18R           10.5278830897       63.1991513485       50.8995447407  MEMB      63              0.0000000000
      8426        69  POPC      H18S           10.3676113899       64.9327780660       50.4925755401  MEMB      63              0.0000000000
      8427        69  POPC      H18T           11.2309632669       63.8156210392       49.3625718805  MEMB      63              0.0000000000
      8428        69  POPC      C33             2.4638719897       57.3165118794       61.3212985967  MEMB      63              0.0000000000
      8429        69  POPC      H3X             2.8729256769       56.4591492455       60.7410793165  MEMB      63              0.0000000000
      8430        69  POPC      H3Y             2.9566871630       58.2380097625       60.9793298671  MEMB      63              0.0000000000
      8431        69  POPC      C34             0.9731530146       57.5229766430       60.9907407994  MEMB      63              0.0000000000
      8432        69  POPC      H4X             0.5664215498       58.3021572293       61.6665685048  MEMB      63              0.0000000000
      8433        69  POPC      H4Y             0.4586022462       56.5629090820       61.2057923513  MEMB      63              0.0000000000
      8434        69  POPC      C35             0.6714224333       57.9404263811       59.5212023228  MEMB      63              0.0000000000
      8435        69  POPC      H5X            -0.3888465050       57.6935487250       59.2961411579  MEMB      63              0.0000000000
      8436        69  POPC      H5Y             1.3036574497       57.3334235137       58.8393559576  MEMB      63              0.0000000000
      8437        69  POPC      C36             0.8604224496       59.4485002088       59.2197832693  MEMB      63              0.0000000000
      8438        69  POPC      H6X             1.8481065782       59.7320555053       59.6107437339  MEMB      63              0.0000000000
      8439        69  POPC      H6Y             0.1131461667       60.0456219530       59.7845930422  MEMB      63              0.0000000000
      8440        69  POPC      C37             0.8074702696       59.8777489280       57.7263187009  MEMB      63              0.0000000000
      8441        69  POPC      H7X            -0.1541668883       60.3975364570       57.5652344070  MEMB      63              0.0000000000
      8442        69  POPC      H7Y             0.7956385049       58.9877584005       57.0696757910  MEMB      63              0.0000000000
      8443        69  POPC      C38             1.9180947543       60.8795726127       57.3090953500  MEMB      63              0.0000000000
      8444        69  POPC      H8X             2.7257120560       60.8343585518       58.0668139477  MEMB      63              0.0000000000
      8445        69  POPC      H8Y             1.4769787549       61.8954792666       57.3961797634  MEMB      63              0.0000000000
      8446        69  POPC      C39             2.6258438055       60.7197779617       55.9305975406  MEMB      63              0.0000000000
      8447        69  POPC      H9X             3.3334113614       59.8807125752       55.9372280056  MEMB      63              0.0000000000
      8448        69  POPC      H9Y             3.2914401146       61.5935847724       55.7745717227  MEMB      63              0.0000000000
      8449        69  POPC      C310            1.7387376132       60.5398824649       54.6931348796  MEMB      63              0.0000000000
      8450        69  POPC      H10X            0.7766519279       61.0753042187       54.8644961954  MEMB      63              0.0000000000
      8451        69  POPC      H10Y            1.4901747009       59.4664548785       54.5668978574  MEMB      63              0.0000000000
      8452        69  POPC      C311            2.3400192949       61.0774426451       53.3733308977  MEMB      63              0.0000000000
      8453        69  POPC      H11X            2.2401503117       62.1860921637       53.4126164718  MEMB      63              0.0000000000
      8454        69  POPC      H11Y            1.6979868767       60.7097756250       52.5475531747  MEMB      63              0.0000000000
      8455        69  POPC      C312            3.8074181913       60.7631554761       52.9987155834  MEMB      63              0.0000000000
      8456        69  POPC      H12X            4.4416125070       60.6306608794       53.8977988266  MEMB      63              0.0000000000
      8457        69  POPC      H12Y            4.1922441001       61.6615387518       52.4594128612  MEMB      63              0.0000000000
      8458        69  POPC      C313            3.9821227710       59.5806378628       52.0240016333  MEMB      63              0.0000000000
      8459        69  POPC      H13X            3.1764380019       59.5904373620       51.2589561390  MEMB      63              0.0000000000
      8460        69  POPC      H13Y            3.8833522030       58.6387411632       52.6047760613  MEMB      63              0.0000000000
      8461        69  POPC      C314            5.3429270412       59.5545566502       51.3025691621  MEMB      63              0.0000000000
      8462        69  POPC      H14X            5.5540787218       58.5105156478       50.9919883379  MEMB      63              0.0000000000
      8463        69  POPC      H14Y            6.1361587570       59.8615302614       52.0187995825  MEMB      63              0.0000000000
      8464        69  POPC      C315            5.4251742372       60.4065912619       50.0249599325  MEMB      63              0.0000000000
      8465        69  POPC      H15X            6.4661602980       60.7919791678       49.9437772546  MEMB      63              0.0000000000
      8466        69  POPC      H15Y            4.7426169828       61.2813201241       50.1061010023  MEMB      63              0.0000000000
      8467        69  POPC      C316            5.1430387753       59.6223778297       48.7384152613  MEMB      63              0.0000000000
      8468        69  POPC      H16X            5.2170909175       60.2796934470       47.8456247898  MEMB      63              0.0000000000
      8469        69  POPC      H16Y            4.1292860511       59.1831536599       48.7640403205  MEMB      63              0.0000000000
      8470        69  POPC      H16Z            5.8663977527       58.7886992828       48.6255588067  MEMB      63              0.0000000000
      8471        70  POPS      N               0.5289755132        5.0820886176       66.6303942414  MEMB      64              0.0000000000
      8472        70  POPS      HN1             0.1836176341        4.3348779455       67.2827221386  MEMB      64              0.0000000000
      8473        70  POPS      HN2             0.3276523470        6.0562592437       66.9432754827  MEMB      64              0.0000000000
      8474        70  POPS      HN3             0.1956422127        4.8475915370       65.6630039087  MEMB      64              0.0000000000
      8475        70  POPS      C12             1.9941578383        5.0113442627       66.4592320349  MEMB      64              0.0000000000
      8476        70  POPS      H12A            2.3562686603        4.1383280636       66.9810152162  MEMB      64              0.0000000000
      8477        70  POPS      C13             2.6848066308        6.2433601108       67.0769092867  MEMB      64              0.0000000000
      8478        70  POPS      O13A            2.0269867346        6.9253959838       67.9229147126  MEMB      64              0.0000000000
      8479        70  POPS      O13B            3.8698817608        6.4895857982       66.7394379253  MEMB      64              0.0000000000
      8480        70  POPS      C11             2.1922917724        4.8152410463       64.9397405610  MEMB      64              0.0000000000
      8481        70  POPS      H11A            3.2485256669        4.5106498837       64.7540444964  MEMB      64              0.0000000000
      8482        70  POPS      H11B            2.0220172528        5.7888221856       64.4142861069  MEMB      64              0.0000000000
      8483        70  POPS      P               1.0386358596        3.5958410121       62.9550855544  MEMB      64              0.0000000000
      8484        70  POPS      O13             0.3747986366        4.8046857864       62.4400517621  MEMB      64              0.0000000000
      8485        70  POPS      O14             0.3639214492        2.2970591947       62.7778425846  MEMB      64              0.0000000000
      8486        70  POPS      O12             1.2708490708        3.7916817542       64.5047544017  MEMB      64              0.0000000000
      8487        70  POPS      O11             2.5372049443        3.4634627442       62.4882885806  MEMB      64              0.0000000000
      8488        70  POPS      C1              3.3123418036        2.3415551472       62.9379227855  MEMB      64              0.0000000000
      8489        70  POPS      HA              2.7882843311        1.7200868723       63.7068331572  MEMB      64              0.0000000000
      8490        70  POPS      HB              4.2184365673        2.7213107222       63.4497082056  MEMB      64              0.0000000000
      8491        70  POPS      C2              3.6929176260        1.3840093588       61.7660176073  MEMB      64              0.0000000000
      8492        70  POPS      HS              4.2576070967        0.5376696987       62.1994374550  MEMB      64              0.0000000000
      8493        70  POPS      O21             4.4892498098        1.9737320377       60.7458756259  MEMB      64              0.0000000000
      8494        70  POPS      C21             5.4596382059        2.7943068764       61.0392322648  MEMB      64              0.0000000000
      8495        70  POPS      O22             6.1133637699        2.8304995855       62.0715768644  MEMB      64              0.0000000000
      8496        70  POPS      C22             5.6640626940        3.6957874415       59.8248318225  MEMB      64              0.0000000000
      8497        70  POPS      H2R             5.4261004646        3.1146548937       58.9135981545  MEMB      64              0.0000000000
      8498        70  POPS      H2S             6.7316207894        3.9382643519       59.7670880319  MEMB      64              0.0000000000
      8499        70  POPS      C3              2.4418049070        0.8027406994       61.0551445174  MEMB      64              0.0000000000
      8500        70  POPS      HX              1.9332987035        1.6353906000       60.5100284177  MEMB      64              0.0000000000
      8501        70  POPS      HY              1.7111527077        0.4788740441       61.8201198153  MEMB      64              0.0000000000
      8502        70  POPS      O31             2.7747787270       -0.3325376595       60.2132694009  MEMB      64              0.0000000000
      8503        70  POPS      C31             3.0380303765        0.0085831463       58.9415955886  MEMB      64              0.0000000000
      8504        70  POPS      O32             3.0425745092        1.1419476322       58.5070090167  MEMB      64              0.0000000000
      8505        70  POPS      C32             3.2183261851       -1.2274892229       58.0651169654  MEMB      64              0.0000000000
      8506        70  POPS      H2X             3.1398077895       -2.1583969151       58.6606426529  MEMB      64              0.0000000000
      8507        70  POPS      H2Y             4.2306527976       -1.1567980858       57.6205388764  MEMB      64              0.0000000000
      8508        70  POPS      C23             4.9021819774        5.0392852649       59.9001309615  MEMB      64              0.0000000000
      8509        70  POPS      H3R             5.5376436498        5.8318147433       59.4410083590  MEMB      64              0.0000000000
      8510        70  POPS      H3S             4.7304604398        5.3342613751       60.9621869842  MEMB      64              0.0000000000
      8511        70  POPS      C24             3.5772966667        5.0174703522       59.1307005780  MEMB      64              0.0000000000
      8512        70  POPS      H4R             3.0093220141        5.9526756734       59.3382472122  MEMB      64              0.0000000000
      8513        70  POPS      H4S             2.9718776667        4.1700615215       59.5314712001  MEMB      64              0.0000000000
      8514        70  POPS      C25             3.7576535598        4.8541075670       57.6091803813  MEMB      64              0.0000000000
      8515        70  POPS      H5R             4.5476372942        4.1026555642       57.4001017199  MEMB      64              0.0000000000
      8516        70  POPS      H5S             4.0819987333        5.8088997468       57.1455909794  MEMB      64              0.0000000000
      8517        70  POPS      C26             2.4793374472        4.3286610784       56.9591921363  MEMB      64              0.0000000000
      8518        70  POPS      H6R             1.6873394267        5.1084824471       56.9890763146  MEMB      64              0.0000000000
      8519        70  POPS      H6S             2.1234387058        3.4727445927       57.5841883509  MEMB      64              0.0000000000
      8520        70  POPS      C27             2.6910273795        3.7951069917       55.5372462487  MEMB      64              0.0000000000
      8521        70  POPS      H7R             3.6497692851        3.2272265012       55.4903525407  MEMB      64              0.0000000000
      8522        70  POPS      H7S             2.7786834451        4.6431568363       54.8320752333  MEMB      64              0.0000000000
      8523        70  POPS      C28             1.5502837960        2.8225257320       55.1886417325  MEMB      64              0.0000000000
      8524        70  POPS      H8R             0.6016013145        3.2207364074       55.6161943761  MEMB      64              0.0000000000
      8525        70  POPS      H8S             1.8114992797        1.9032716283       55.7531384389  MEMB      64              0.0000000000
      8526        70  POPS      C29             1.3046238506        2.4183064634       53.7644383483  MEMB      64              0.0000000000
      8527        70  POPS      H91             1.3329030856        1.3358692221       53.5739068720  MEMB      64              0.0000000000
      8528        70  POPS      C210            1.0329883869        3.2287666396       52.7386264272  MEMB      64              0.0000000000
      8529        70  POPS      H101            0.8435379180        2.7717726216       51.7553408465  MEMB      64              0.0000000000
      8530        70  POPS      C211            0.9140877037        4.7277626104       52.7775082724  MEMB      64              0.0000000000
      8531        70  POPS      H11R            1.0389704514        5.1494428913       53.7987327167  MEMB      64              0.0000000000
      8532        70  POPS      H11S           -0.1004605815        5.0432459897       52.4640426174  MEMB      64              0.0000000000
      8533        70  POPS      C212            1.9196682559        5.3964356062       51.8298796332  MEMB      64              0.0000000000
      8534        70  POPS      H12R            2.9151458449        5.4737327130       52.3231363267  MEMB      64              0.0000000000
      8535        70  POPS      H12S            1.5287862243        6.4222994698       51.6574821522  MEMB      64              0.0000000000
      8536        70  POPS      C213            2.1000623512        4.7142374397       50.4629008826  MEMB      64              0.0000000000
      8537        70  POPS      H13R            1.1023441955        4.5213088837       50.0108771554  MEMB      64              0.0000000000
      8538        70  POPS      H13S            2.6162632789        3.7362826905       50.5910274465  MEMB      64              0.0000000000
      8539        70  POPS      C214            2.9163853525        5.5903569471       49.5117243223  MEMB      64              0.0000000000
      8540        70  POPS      H14R            3.9182829414        5.7815902781       49.9587534956  MEMB      64              0.0000000000
      8541        70  POPS      H14S            2.3690467649        6.5493509330       49.4094766109  MEMB      64              0.0000000000
      8542        70  POPS      C215            3.0616224639        5.0194240178       48.1047143763  MEMB      64              0.0000000000
      8543        70  POPS      H15R            3.0843746627        3.9097286603       48.1618713151  MEMB      64              0.0000000000
      8544        70  POPS      H15S            4.0211430261        5.3589052081       47.6512457575  MEMB      64              0.0000000000
      8545        70  POPS      C216            1.9074725521        5.4633201151       47.1986662343  MEMB      64              0.0000000000
      8546        70  POPS      H16R            2.0460452349        6.5293963907       46.9147632319  MEMB      64              0.0000000000
      8547        70  POPS      H16S            0.9457705131        5.3833793394       47.7526975720  MEMB      64              0.0000000000
      8548        70  POPS      C217            1.8463029680        4.5792474372       45.9593403011  MEMB      64              0.0000000000
      8549        70  POPS      H17R            1.7765303727        3.5220618919       46.3059450654  MEMB      64              0.0000000000
      8550        70  POPS      H17S            2.8146126211        4.6948490516       45.4272388152  MEMB      64              0.0000000000
      8551        70  POPS      C218            0.6941766425        4.8528463849       44.9935267320  MEMB      64              0.0000000000
      8552        70  POPS      H18R            0.5229317404        3.9704183889       44.3416799658  MEMB      64              0.0000000000
      8553        70  POPS      H18S            0.9353460655        5.7081215422       44.3311840033  MEMB      64              0.0000000000
      8554        70  POPS      H18T           -0.2470969465        5.0686019542       45.5408315767  MEMB      64              0.0000000000
      8555        70  POPS      C33             2.1330465873       -1.1653021052       56.9666383844  MEMB      64              0.0000000000
      8556        70  POPS      H3X             2.0721639550       -0.1207903568       56.5835567594  MEMB      64              0.0000000000
      8557        70  POPS      H3Y             1.1557966121       -1.4261929658       57.4293389045  MEMB      64              0.0000000000
      8558        70  POPS      C34             2.3121651218       -2.0378274596       55.7224845635  MEMB      64              0.0000000000
      8559        70  POPS      H4X             1.4854280259       -1.8268055736       55.0082376982  MEMB      64              0.0000000000
      8560        70  POPS      H4Y             2.1970258614       -3.0882301031       56.0128811576  MEMB      64              0.0000000000
      8561        70  POPS      C35             3.6361988737       -1.8233544574       54.9960845134  MEMB      64              0.0000000000
      8562        70  POPS      H5X             3.6333878645       -2.4261019609       54.0596703987  MEMB      64              0.0000000000
      8563        70  POPS      H5Y             4.4510155787       -2.1957887194       55.6464897234  MEMB      64              0.0000000000
      8564        70  POPS      C36             3.8790603163       -0.3520057135       54.6589120797  MEMB      64              0.0000000000
      8565        70  POPS      H6X             4.2734999159        0.1945527943       55.5450714394  MEMB      64              0.0000000000
      8566        70  POPS      H6Y             2.8971994928        0.1042320153       54.4030140236  MEMB      64              0.0000000000
      8567        70  POPS      C37             4.7996489578       -0.1534660216       53.4562078139  MEMB      64              0.0000000000
      8568        70  POPS      H7X             4.3496690318       -0.7161344190       52.6103962728  MEMB      64              0.0000000000
      8569        70  POPS      H7Y             5.8049577090       -0.5830843658       53.6452517316  MEMB      64              0.0000000000
      8570        70  POPS      C38             4.9279979279        1.3357879306       53.1194168933  MEMB      64              0.0000000000
      8571        70  POPS      H8X             5.6045995664        1.8016151695       53.8659743650  MEMB      64              0.0000000000
      8572        70  POPS      H8Y             3.9292612246        1.8098770055       53.2511110043  MEMB      64              0.0000000000
      8573        70  POPS      C39             5.3848230998        1.6467223583       51.6885573132  MEMB      64              0.0000000000
      8574        70  POPS      H9X             6.4600075305        1.3948095943       51.5574860332  MEMB      64              0.0000000000
      8575        70  POPS      H9Y             5.2581154177        2.7418210365       51.5285529991  MEMB      64              0.0000000000
      8576        70  POPS      C310            4.5523813760        0.9009336485       50.6411073238  MEMB      64              0.0000000000
      8577        70  POPS      H10X            3.4895869736        0.8932862244       50.9757371907  MEMB      64              0.0000000000
      8578        70  POPS      H10Y            4.9112914046       -0.1500430155       50.6113798518  MEMB      64              0.0000000000
      8579        70  POPS      C311            4.6046130132        1.5210019876       49.2406552839  MEMB      64              0.0000000000
      8580        70  POPS      H11X            5.6491666553        1.5125585933       48.8611658496  MEMB      64              0.0000000000
      8581        70  POPS      H11Y            4.2864288545        2.5826409110       49.3254220196  MEMB      64              0.0000000000
      8582        70  POPS      C312            3.6851489412        0.7810253677       48.2568698535  MEMB      64              0.0000000000
      8583        70  POPS      H12X            3.5930881357        1.3649377676       47.3146694848  MEMB      64              0.0000000000
      8584        70  POPS      H12Y            2.6694195525        0.7083040057       48.7070065370  MEMB      64              0.0000000000
      8585        70  POPS      C313            4.2136147376       -0.6227541334       47.9326536433  MEMB      64              0.0000000000
      8586        70  POPS      H13X            4.5497370966       -1.1249953912       48.8649942509  MEMB      64              0.0000000000
      8587        70  POPS      H13Y            5.1047614782       -0.5329152021       47.2732551107  MEMB      64              0.0000000000
      8588        70  POPS      C314            3.2013026876       -1.5643331547       47.2790747645  MEMB      64              0.0000000000
      8589        70  POPS      H14X            2.9584985082       -1.2098031769       46.2567361183  MEMB      64              0.0000000000
      8590        70  POPS      H14Y            2.2539442955       -1.5798591666       47.8638684931  MEMB      64              0.0000000000
      8591        70  POPS      C315            3.7721405739       -2.9850554408       47.2080284111  MEMB      64              0.0000000000
      8592        70  POPS      H15X            3.7758218554       -3.4182686547       48.2355039507  MEMB      64              0.0000000000
      8593        70  POPS      H15Y            4.8304330463       -2.9324018562       46.8626092524  MEMB      64              0.0000000000
      8594        70  POPS      C316            2.9936040335       -3.8993829201       46.2713867197  MEMB      64              0.0000000000
      8595        70  POPS      H16X            3.0526187825       -3.5342035942       45.2258071325  MEMB      64              0.0000000000
      8596        70  POPS      H16Y            1.9236223220       -3.9156968517       46.5610329309  MEMB      64              0.0000000000
      8597        70  POPS      H16Z            3.3880118287       -4.9368254959       46.3098713967  MEMB      64              0.0000000000
      8598        71  POPC      N              63.4751005458       -0.5638279620       66.8055529810  MEMB      65              0.0000000000
      8599        71  POPC      C12            62.4558392777        0.5626098232       66.8117445882  MEMB      65              0.0000000000
      8600        71  POPC      H12A           63.0039351283        1.4819359203       66.6026088140  MEMB      65              0.0000000000
      8601        71  POPC      H12B           62.0331121048        0.6487929425       67.8085850760  MEMB      65              0.0000000000
      8602        71  POPC      C13            64.2738879945       -0.4797629915       68.0465874379  MEMB      65              0.0000000000
      8603        71  POPC      H13A           63.6086403838       -0.5538931807       68.9104620247  MEMB      65              0.0000000000
      8604        71  POPC      H13B           64.9973212186       -1.2782720534       68.0956590299  MEMB      65              0.0000000000
      8605        71  POPC      H13C           64.7739505875        0.4738052871       68.0994278595  MEMB      65              0.0000000000
      8606        71  POPC      C14            62.7580233926       -1.8717994624       66.7289458095  MEMB      65              0.0000000000
      8607        71  POPC      H14A           62.1874941383       -1.8383831651       65.7956879190  MEMB      65              0.0000000000
      8608        71  POPC      H14B           63.3972259651       -2.7398156334       66.7043024816  MEMB      65              0.0000000000
      8609        71  POPC      H14C           62.0104224774       -1.9600772524       67.5170671208  MEMB      65              0.0000000000
      8610        71  POPC      C15            64.3486508363       -0.3595376123       65.5954002124  MEMB      65              0.0000000000
      8611        71  POPC      H15A           64.8305108543        0.6129202611       65.6162907729  MEMB      65              0.0000000000
      8612        71  POPC      H15B           63.7001255782       -0.3546047604       64.7099287932  MEMB      65              0.0000000000
      8613        71  POPC      H15C           65.0929027587       -1.1350542717       65.4856151690  MEMB      65              0.0000000000
      8614        71  POPC      C11            61.2932289765        0.4830393681       65.7950307537  MEMB      65              0.0000000000
      8615        71  POPC      H11A           61.0622208441        1.5238324295       65.4625007400  MEMB      65              0.0000000000
      8616        71  POPC      H11B           60.3804785737        0.0830808979       66.2966643538  MEMB      65              0.0000000000
      8617        71  POPC      P              60.6423753061       -0.4103387044       63.4662136481  MEMB      65              0.0000000000
      8618        71  POPC      O13            59.5598404583        0.5395810563       63.7890105788  MEMB      65              0.0000000000
      8619        71  POPC      O14            60.3012257626       -1.8073154734       63.1726394443  MEMB      65              0.0000000000
      8620        71  POPC      O12            61.6324459197       -0.3302548650       64.6774624858  MEMB      65              0.0000000000
      8621        71  POPC      O11            61.5030553094        0.2496572355       62.3289692844  MEMB      65              0.0000000000
      8622        71  POPC      C1             61.6434589170        1.6809462364       62.4369275453  MEMB      65              0.0000000000
      8623        71  POPC      HA             62.3242228959        1.9416541718       63.2806243734  MEMB      65              0.0000000000
      8624        71  POPC      HB             60.6744598164        2.2139660073       62.5774619213  MEMB      65              0.0000000000
      8625        71  POPC      C2             62.2432145976        2.2055979231       61.1383346896  MEMB      65              0.0000000000
      8626        71  POPC      HS             62.6184934976        3.2339572156       61.3081234707  MEMB      65              0.0000000000
      8627        71  POPC      O21            61.2042531295        2.1810323437       60.1378483183  MEMB      65              0.0000000000
      8628        71  POPC      C21            61.3625711539        2.9934912554       59.1157054109  MEMB      65              0.0000000000
      8629        71  POPC      O22            62.1914285970        3.8776567838       59.0147286239  MEMB      65              0.0000000000
      8630        71  POPC      C22            60.5155883437        2.5044434082       57.9558110634  MEMB      65              0.0000000000
      8631        71  POPC      H2R            59.5218463366        2.9870081860       58.0038506772  MEMB      65              0.0000000000
      8632        71  POPC      H2S            60.4013728744        1.4034284360       58.0435468555  MEMB      65              0.0000000000
      8633        71  POPC      C3             63.4479761056        1.2807785986       60.8307388675  MEMB      65              0.0000000000
      8634        71  POPC      HX             63.0982950390        0.2337277072       60.6619315593  MEMB      65              0.0000000000
      8635        71  POPC      HY             64.0813381919        1.2467437446       61.7462060184  MEMB      65              0.0000000000
      8636        71  POPC      O31            64.2500904735        1.7935697422       59.7688368306  MEMB      65              0.0000000000
      8637        71  POPC      C31            63.9099151128        1.3288795136       58.5892705697  MEMB      65              0.0000000000
      8638        71  POPC      O32            63.0097402881        0.5389181385       58.3601296133  MEMB      65              0.0000000000
      8639        71  POPC      C32            64.8847347723        1.8670030793       57.5565994254  MEMB      65              0.0000000000
      8640        71  POPC      H2X            65.4236708072        2.7316703568       58.0032890390  MEMB      65              0.0000000000
      8641        71  POPC      H2Y            64.3435780523        2.2299991710       56.6655900523  MEMB      65              0.0000000000
      8642        71  POPC      C23            61.2758266157        2.8443757409       56.6641614583  MEMB      65              0.0000000000
      8643        71  POPC      H3R            62.3691658993        2.8820293023       56.8719247858  MEMB      65              0.0000000000
      8644        71  POPC      H3S            60.9948228843        3.8630805153       56.3303435661  MEMB      65              0.0000000000
      8645        71  POPC      C24            61.1671583151        1.8016881660       55.5510403882  MEMB      65              0.0000000000
      8646        71  POPC      H4R            60.1540213626        1.7867001509       55.1077548613  MEMB      65              0.0000000000
      8647        71  POPC      H4S            61.3404730142        0.7893337865       55.9868916949  MEMB      65              0.0000000000
      8648        71  POPC      C25            62.2195226947        2.0381181651       54.4571450756  MEMB      65              0.0000000000
      8649        71  POPC      H5R            61.8873841837        1.5683184127       53.5058070296  MEMB      65              0.0000000000
      8650        71  POPC      H5S            63.1420205014        1.5142425454       54.7878303694  MEMB      65              0.0000000000
      8651        71  POPC      C26            62.6135295739        3.5066921537       54.2221650174  MEMB      65              0.0000000000
      8652        71  POPC      H6R            62.9743082589        3.9656389977       55.1705275848  MEMB      65              0.0000000000
      8653        71  POPC      H6S            61.7497596194        4.1013237376       53.8629202463  MEMB      65              0.0000000000
      8654        71  POPC      C27            63.7747023587        3.6332934645       53.2365646743  MEMB      65              0.0000000000
      8655        71  POPC      H7R            64.3348001476        2.6691214528       53.2282238584  MEMB      65              0.0000000000
      8656        71  POPC      H7S            64.4721694357        4.4163949319       53.6126814263  MEMB      65              0.0000000000
      8657        71  POPC      C28            63.3042311993        4.0118867278       51.8266249898  MEMB      65              0.0000000000
      8658        71  POPC      H8R            62.9588546506        5.0573827679       51.8158141476  MEMB      65              0.0000000000
      8659        71  POPC      H8S            62.4299406031        3.3816631140       51.5492863795  MEMB      65              0.0000000000
      8660        71  POPC      C29            64.4501625150        3.8486214148       50.8770470820  MEMB      65              0.0000000000
      8661        71  POPC      H91            65.1030080190        4.7236819728       50.7320162235  MEMB      65              0.0000000000
      8662        71  POPC      C210           64.6929377391        2.7237281886       50.2065463750  MEMB      65              0.0000000000
      8663        71  POPC      H101           65.6109678853        2.6600319310       49.6074688886  MEMB      65              0.0000000000
      8664        71  POPC      C211           63.8582559157        1.4765077284       50.3000274423  MEMB      65              0.0000000000
      8665        71  POPC      H11R           63.0561307730        1.5348072459       49.5288977246  MEMB      65              0.0000000000
      8666        71  POPC      H11S           63.3347623079        1.3875742732       51.2797323547  MEMB      65              0.0000000000
      8667        71  POPC      C212           64.6475963379        0.1841445523       50.0660570034  MEMB      65              0.0000000000
      8668        71  POPC      H12R           64.7528980817       -0.3512936500       51.0374547232  MEMB      65              0.0000000000
      8669        71  POPC      H12S           65.6734393946        0.3791610996       49.6814363730  MEMB      65              0.0000000000
      8670        71  POPC      C213           63.9294670249       -0.7169319484       49.0606889382  MEMB      65              0.0000000000
      8671        71  POPC      H13R           63.9047681655       -0.2260518916       48.0623917361  MEMB      65              0.0000000000
      8672        71  POPC      H13S           62.8789826891       -0.8676586581       49.3966171265  MEMB      65              0.0000000000
      8673        71  POPC      C214           64.6215890130       -2.0689703339       48.9417986471  MEMB      65              0.0000000000
      8674        71  POPC      H14R           64.6312250796       -2.5191495042       49.9555428883  MEMB      65              0.0000000000
      8675        71  POPC      H14S           65.6759601418       -1.9105630996       48.6249233639  MEMB      65              0.0000000000
      8676        71  POPC      C215           63.9174934656       -3.0345623579       47.9874675822  MEMB      65              0.0000000000
      8677        71  POPC      H15R           63.1788654833       -2.4601875860       47.3898022507  MEMB      65              0.0000000000
      8678        71  POPC      H15S           63.3449700377       -3.7813274892       48.5821988613  MEMB      65              0.0000000000
      8679        71  POPC      C216           64.8611420601       -3.7620893625       47.0185333813  MEMB      65              0.0000000000
      8680        71  POPC      H16R           64.2531297553       -4.4974507539       46.4524360944  MEMB      65              0.0000000000
      8681        71  POPC      H16S           65.6234157392       -4.3384904468       47.5803323573  MEMB      65              0.0000000000
      8682        71  POPC      C217           65.5457006808       -2.8313147666       46.0080475240  MEMB      65              0.0000000000
      8683        71  POPC      H17R           66.3956832113       -2.3204110439       46.5120442610  MEMB      65              0.0000000000
      8684        71  POPC      H17S           64.8184924594       -2.0422931065       45.7036662805  MEMB      65              0.0000000000
      8685        71  POPC      C218           66.0412885794       -3.5429546686       44.7430011597  MEMB      65              0.0000000000
      8686        71  POPC      H18R           66.5676349653       -2.8369902483       44.0673962225  MEMB      65              0.0000000000
      8687        71  POPC      H18S           65.1860736642       -3.9746119684       44.1812592043  MEMB      65              0.0000000000
      8688        71  POPC      H18T           66.7324801676       -4.3719637304       45.0004319794  MEMB      65              0.0000000000
      8689        71  POPC      C33            65.8928360600        0.7696923195       57.1874051121  MEMB      65              0.0000000000
      8690        71  POPC      H3X            66.0160381129        0.0299174934       58.0074497457  MEMB      65              0.0000000000
      8691        71  POPC      H3Y            66.8734661680        1.2792583748       57.1215713251  MEMB      65              0.0000000000
      8692        71  POPC      C34            65.5758245264        0.0544465120       55.8634444845  MEMB      65              0.0000000000
      8693        71  POPC      H4X            66.5229930439       -0.1852949789       55.3389623011  MEMB      65              0.0000000000
      8694        71  POPC      H4Y            65.0328073753        0.7448460591       55.1886731511  MEMB      65              0.0000000000
      8695        71  POPC      C35            64.7922024237       -1.2501823811       56.0681153639  MEMB      65              0.0000000000
      8696        71  POPC      H5X            63.8723074465       -1.0369938998       56.6577279836  MEMB      65              0.0000000000
      8697        71  POPC      H5Y            65.4088439120       -1.9584054224       56.6669234932  MEMB      65              0.0000000000
      8698        71  POPC      C36            64.3779772810       -1.9393704590       54.7594117829  MEMB      65              0.0000000000
      8699        71  POPC      H6X            63.9613601475       -2.9402580820       55.0155528846  MEMB      65              0.0000000000
      8700        71  POPC      H6Y            65.2637043176       -2.1021478852       54.1085397483  MEMB      65              0.0000000000
      8701        71  POPC      C37            63.2981052752       -1.1542947994       54.0038164240  MEMB      65              0.0000000000
      8702        71  POPC      H7X            63.7460410612       -0.2493270302       53.5384301210  MEMB      65              0.0000000000
      8703        71  POPC      H7Y            62.5319224822       -0.8280212617       54.7436373551  MEMB      65              0.0000000000
      8704        71  POPC      C38            62.5787855714       -1.9728075824       52.9273383440  MEMB      65              0.0000000000
      8705        71  POPC      H8X            62.2026997079       -2.9144671456       53.3849989689  MEMB      65              0.0000000000
      8706        71  POPC      H8Y            63.2975382870       -2.2374429530       52.1221200055  MEMB      65              0.0000000000
      8707        71  POPC      C39            61.3911134940       -1.2259640649       52.3121526322  MEMB      65              0.0000000000
      8708        71  POPC      H9X            61.7589343499       -0.2658913577       51.8841442141  MEMB      65              0.0000000000
      8709        71  POPC      H9Y            60.6530035735       -0.9763516938       53.1067223808  MEMB      65              0.0000000000
      8710        71  POPC      C310           60.7144022244       -2.0319235437       51.1962493651  MEMB      65              0.0000000000
      8711        71  POPC      H10X           60.3126167083       -2.9854215351       51.6022934180  MEMB      65              0.0000000000
      8712        71  POPC      H10Y           61.4957556194       -2.2925338933       50.4494485044  MEMB      65              0.0000000000
      8713        71  POPC      C311           59.5910640641       -1.2358802442       50.5174728822  MEMB      65              0.0000000000
      8714        71  POPC      H11X           59.9781301569       -0.2175450542       50.2951886130  MEMB      65              0.0000000000
      8715        71  POPC      H11Y           58.7518164800       -1.1137429274       51.2399596127  MEMB      65              0.0000000000
      8716        71  POPC      C312           59.0578068027       -1.8717401342       49.2199274895  MEMB      65              0.0000000000
      8717        71  POPC      H12X           58.1697956940       -1.3005284648       48.8703235204  MEMB      65              0.0000000000
      8718        71  POPC      H12Y           58.7124683215       -2.9046550618       49.4546184806  MEMB      65              0.0000000000
      8719        71  POPC      C313           60.0756700577       -1.9528663720       48.0647952855  MEMB      65              0.0000000000
      8720        71  POPC      H13X           59.6179723309       -2.5193678169       47.2219794928  MEMB      65              0.0000000000
      8721        71  POPC      H13Y           60.9474045808       -2.5444771127       48.4185746409  MEMB      65              0.0000000000
      8722        71  POPC      C314           60.6005632046       -0.6114372510       47.5194579559  MEMB      65              0.0000000000
      8723        71  POPC      H14X           61.6909870346       -0.7198499702       47.3176387754  MEMB      65              0.0000000000
      8724        71  POPC      H14Y           60.5007681448        0.1953868489       48.2730653839  MEMB      65              0.0000000000
      8725        71  POPC      C315           59.9507994277       -0.1908115738       46.1941752485  MEMB      65              0.0000000000
      8726        71  POPC      H15X           58.8554546231       -0.1022978644       46.3256479342  MEMB      65              0.0000000000
      8727        71  POPC      H15Y           60.1119743808       -0.9927056085       45.4404191498  MEMB      65              0.0000000000
      8728        71  POPC      C316           60.5035822134        1.1253338268       45.6471408600  MEMB      65              0.0000000000
      8729        71  POPC      H16X           60.3204810985        1.9565924217       46.3621659303  MEMB      65              0.0000000000
      8730        71  POPC      H16Y           60.0190225687        1.3789187746       44.6796380223  MEMB      65              0.0000000000
      8731        71  POPC      H16Z           61.5981566119        1.0428630055       45.4799073986  MEMB      65              0.0000000000
      8732        72  POPC      N              39.4062874761       35.6100713027       24.0752893314  MEMB      66              0.0000000000
      8733        72  POPC      C12            40.4741722983       34.9940522227       24.9661839557  MEMB      66              0.0000000000
      8734        72  POPC      H12A           41.3935775401       35.5707010048       24.8724748175  MEMB      66              0.0000000000
      8735        72  POPC      H12B           40.6450849871       33.9906163169       24.6019238369  MEMB      66              0.0000000000
      8736        72  POPC      C13            39.1547424964       37.0468393634       24.4351442055  MEMB      66              0.0000000000
      8737        72  POPC      H13A           40.0404762027       37.6577248384       24.3269182999  MEMB      66              0.0000000000
      8738        72  POPC      H13B           38.3445100697       37.4886681411       23.8679870342  MEMB      66              0.0000000000
      8739        72  POPC      H13C           38.8884407700       37.1562240793       25.4952846228  MEMB      66              0.0000000000
      8740        72  POPC      C14            39.8205918541       35.5615450348       22.6437869718  MEMB      66              0.0000000000
      8741        72  POPC      H14A           40.7684184461       36.0702680539       22.4846075215  MEMB      66              0.0000000000
      8742        72  POPC      H14B           39.9091229569       34.5410466074       22.2791088768  MEMB      66              0.0000000000
      8743        72  POPC      H14C           39.0758858421       36.0713979392       22.0362551362  MEMB      66              0.0000000000
      8744        72  POPC      C15            38.1282466190       34.8640569651       24.2531114002  MEMB      66              0.0000000000
      8745        72  POPC      H15A           37.8642713878       34.8399241230       25.3084294634  MEMB      66              0.0000000000
      8746        72  POPC      H15B           38.1919743796       33.8525551832       23.8605008833  MEMB      66              0.0000000000
      8747        72  POPC      H15C           37.3123428419       35.3873021905       23.7694112590  MEMB      66              0.0000000000
      8748        72  POPC      C11            40.1758497006       34.9288435089       26.4812140579  MEMB      66              0.0000000000
      8749        72  POPC      H11A           40.9786776428       34.3527919569       26.9942344631  MEMB      66              0.0000000000
      8750        72  POPC      H11B           39.2165095382       34.3935026441       26.6700667193  MEMB      66              0.0000000000
      8751        72  POPC      P              39.1217033404       36.8183870470       28.0262438885  MEMB      66              0.0000000000
      8752        72  POPC      O13            38.3960642641       35.6848009520       28.6322355689  MEMB      66              0.0000000000
      8753        72  POPC      O14            38.3347763906       37.8380348237       27.3122103988  MEMB      66              0.0000000000
      8754        72  POPC      O12            40.1801758683       36.2462290404       26.9915693649  MEMB      66              0.0000000000
      8755        72  POPC      O11            40.0767847931       37.4868783384       29.1011870929  MEMB      66              0.0000000000
      8756        72  POPC      C1             41.2803682994       36.8012018898       29.4634654714  MEMB      66              0.0000000000
      8757        72  POPC      HA             41.9581781893       37.5219206511       29.9659941526  MEMB      66              0.0000000000
      8758        72  POPC      HB             41.8448063503       36.4235363856       28.5824041140  MEMB      66              0.0000000000
      8759        72  POPC      C2             41.0363221852       35.6422835098       30.4576581383  MEMB      66              0.0000000000
      8760        72  POPC      HS             40.4812426682       34.8388804569       29.9152634872  MEMB      66              0.0000000000
      8761        72  POPC      O21            40.2772770832       36.1721050298       31.5668413360  MEMB      66              0.0000000000
      8762        72  POPC      C21            39.2402248013       35.4404398618       31.9440200925  MEMB      66              0.0000000000
      8763        72  POPC      O22            39.1268021970       34.2336826764       31.8165721678  MEMB      66              0.0000000000
      8764        72  POPC      C22            38.1863858673       36.3563840783       32.5818864780  MEMB      66              0.0000000000
      8765        72  POPC      H2R            37.4731466768       36.6242361798       31.7735415456  MEMB      66              0.0000000000
      8766        72  POPC      H2S            38.6731312387       37.2848374081       32.9444022524  MEMB      66              0.0000000000
      8767        72  POPC      C3             42.4156777657       35.0713495120       30.8837767579  MEMB      66              0.0000000000
      8768        72  POPC      HX             43.0410711346       35.9297900597       31.2154861971  MEMB      66              0.0000000000
      8769        72  POPC      HY             42.9259987559       34.6172813608       30.0039713377  MEMB      66              0.0000000000
      8770        72  POPC      O31            42.3135159376       34.1518376261       31.9722790511  MEMB      66              0.0000000000
      8771        72  POPC      C31            41.8348144976       32.9548435535       31.6903736513  MEMB      66              0.0000000000
      8772        72  POPC      O32            41.6408090615       32.5140420491       30.5688827665  MEMB      66              0.0000000000
      8773        72  POPC      C32            41.5921533411       32.1863253252       32.9898331106  MEMB      66              0.0000000000
      8774        72  POPC      H2X            42.3932513760       31.4409704298       33.1340626536  MEMB      66              0.0000000000
      8775        72  POPC      H2Y            40.6465196761       31.6329403685       32.8266279304  MEMB      66              0.0000000000
      8776        72  POPC      C23            37.4487277926       35.6533784728       33.7402929464  MEMB      66              0.0000000000
      8777        72  POPC      H3R            37.0977363745       34.6552432147       33.4021814916  MEMB      66              0.0000000000
      8778        72  POPC      H3S            36.5577029102       36.2612348319       34.0138438048  MEMB      66              0.0000000000
      8779        72  POPC      C24            38.3334388800       35.5074884888       34.9842067214  MEMB      66              0.0000000000
      8780        72  POPC      H4R            38.4211865781       36.4966080768       35.4835948974  MEMB      66              0.0000000000
      8781        72  POPC      H4S            39.3509924735       35.2019133634       34.6725442502  MEMB      66              0.0000000000
      8782        72  POPC      C25            37.8271627710       34.4822712298       36.0071793472  MEMB      66              0.0000000000
      8783        72  POPC      H5R            37.4927498168       33.5603409305       35.4859186231  MEMB      66              0.0000000000
      8784        72  POPC      H5S            36.9594749476       34.9167260041       36.5481689645  MEMB      66              0.0000000000
      8785        72  POPC      C26            38.8936991856       34.1163537239       37.0474885302  MEMB      66              0.0000000000
      8786        72  POPC      H6R            39.8592305885       33.9343166425       36.5317531817  MEMB      66              0.0000000000
      8787        72  POPC      H6S            38.5991473592       33.1733013253       37.5596299021  MEMB      66              0.0000000000
      8788        72  POPC      C27            39.0434104330       35.2106881496       38.1144187831  MEMB      66              0.0000000000
      8789        72  POPC      H7R            38.0833007098       35.2629629778       38.6830233577  MEMB      66              0.0000000000
      8790        72  POPC      H7S            39.1710552216       36.1994127271       37.6257791711  MEMB      66              0.0000000000
      8791        72  POPC      C28            40.2026006371       34.9583647262       39.0938889942  MEMB      66              0.0000000000
      8792        72  POPC      H8R            40.1173301293       33.9106061431       39.4577003742  MEMB      66              0.0000000000
      8793        72  POPC      H8S            40.0444464801       35.6284031603       39.9679993336  MEMB      66              0.0000000000
      8794        72  POPC      C29            41.5526520998       35.2057126444       38.4663066275  MEMB      66              0.0000000000
      8795        72  POPC      H91            41.5829795903       35.1073695677       37.3732887325  MEMB      66              0.0000000000
      8796        72  POPC      C210           42.6950837062       35.4876479704       39.1177570064  MEMB      66              0.0000000000
      8797        72  POPC      H101           43.6196021741       35.6329667377       38.5375921895  MEMB      66              0.0000000000
      8798        72  POPC      C211           42.8437345349       35.6057949270       40.6130251637  MEMB      66              0.0000000000
      8799        72  POPC      H11R           41.8460226393       35.6414058396       41.0918767822  MEMB      66              0.0000000000
      8800        72  POPC      H11S           43.3367092531       36.5643678408       40.8622017460  MEMB      66              0.0000000000
      8801        72  POPC      C212           43.6598181302       34.4254213922       41.1881836132  MEMB      66              0.0000000000
      8802        72  POPC      H12R           44.7471299937       34.6101188991       41.0532845580  MEMB      66              0.0000000000
      8803        72  POPC      H12S           43.4539134245       33.5292057079       40.5792598030  MEMB      66              0.0000000000
      8804        72  POPC      C213           43.4265346497       34.0442436595       42.6673502835  MEMB      66              0.0000000000
      8805        72  POPC      H13R           44.1800311207       34.5866059719       43.2777158669  MEMB      66              0.0000000000
      8806        72  POPC      H13S           43.6516791239       32.9592862453       42.7855436166  MEMB      66              0.0000000000
      8807        72  POPC      C214           42.0411317535       34.3349382122       43.2735834921  MEMB      66              0.0000000000
      8808        72  POPC      H14R           41.8158216552       35.4199658482       43.1943004140  MEMB      66              0.0000000000
      8809        72  POPC      H14S           42.1076316190       34.1157061944       44.3626565627  MEMB      66              0.0000000000
      8810        72  POPC      C215           40.8738091286       33.5185230783       42.6914983488  MEMB      66              0.0000000000
      8811        72  POPC      H15R           41.1058105949       32.4368590600       42.8123443195  MEMB      66              0.0000000000
      8812        72  POPC      H15S           40.7732744806       33.7076092799       41.6034349248  MEMB      66              0.0000000000
      8813        72  POPC      C216           39.5476750006       33.8353814533       43.4068166593  MEMB      66              0.0000000000
      8814        72  POPC      H16R           39.7755463092       34.3351732177       44.3756809557  MEMB      66              0.0000000000
      8815        72  POPC      H16S           39.0125763877       32.8887983508       43.6372638389  MEMB      66              0.0000000000
      8816        72  POPC      C217           38.5934453295       34.7361364171       42.6101675070  MEMB      66              0.0000000000
      8817        72  POPC      H17R           38.0431237091       34.1258983110       41.8574665679  MEMB      66              0.0000000000
      8818        72  POPC      H17S           39.1894347284       35.4804868168       42.0395284019  MEMB      66              0.0000000000
      8819        72  POPC      C218           37.5938191926       35.4858096780       43.4952739971  MEMB      66              0.0000000000
      8820        72  POPC      H18R           37.0418776852       34.7899936241       44.1587169519  MEMB      66              0.0000000000
      8821        72  POPC      H18S           36.8421296889       36.0288468290       42.8773450361  MEMB      66              0.0000000000
      8822        72  POPC      H18T           38.1111452194       36.2288436501       44.1383593534  MEMB      66              0.0000000000
      8823        72  POPC      C33            41.4365873273       33.0837085846       34.2449977791  MEMB      66              0.0000000000
      8824        72  POPC      H3X            40.8584289155       32.4764935874       34.9828766954  MEMB      66              0.0000000000
      8825        72  POPC      H3Y            40.8191357184       33.9689211227       34.0100611567  MEMB      66              0.0000000000
      8826        72  POPC      C34            42.7543936325       33.4833247379       34.9410858697  MEMB      66              0.0000000000
      8827        72  POPC      H4X            43.5249154282       32.7180635915       34.7263667819  MEMB      66              0.0000000000
      8828        72  POPC      H4Y            42.5608632511       33.4797620886       36.0379901432  MEMB      66              0.0000000000
      8829        72  POPC      C35            43.3534840175       34.8611168972       34.6336131471  MEMB      66              0.0000000000
      8830        72  POPC      H5X            43.8391987323       34.8662826386       33.6342186483  MEMB      66              0.0000000000
      8831        72  POPC      H5Y            44.1656474436       35.0379901968       35.3770599046  MEMB      66              0.0000000000
      8832        72  POPC      C36            42.3433408879       36.0066361841       34.7259943801  MEMB      66              0.0000000000
      8833        72  POPC      H6X            41.5060791988       35.7327819949       35.4024428544  MEMB      66              0.0000000000
      8834        72  POPC      H6Y            41.9072620045       36.1838424392       33.7164150483  MEMB      66              0.0000000000
      8835        72  POPC      C37            42.9952618099       37.2848421512       35.2531689578  MEMB      66              0.0000000000
      8836        72  POPC      H7X            43.9633137524       37.4105793872       34.7206508221  MEMB      66              0.0000000000
      8837        72  POPC      H7Y            43.2195793470       37.1791436357       36.3361173296  MEMB      66              0.0000000000
      8838        72  POPC      C38            42.1436687284       38.5303628241       35.0052603843  MEMB      66              0.0000000000
      8839        72  POPC      H8X            41.9505959673       38.5717398632       33.9092635778  MEMB      66              0.0000000000
      8840        72  POPC      H8Y            42.7213411324       39.4362658724       35.2931975623  MEMB      66              0.0000000000
      8841        72  POPC      C39            40.7721567354       38.5616332990       35.6956035219  MEMB      66              0.0000000000
      8842        72  POPC      H9X            40.2074026358       37.6373575935       35.4580606374  MEMB      66              0.0000000000
      8843        72  POPC      H9Y            40.2084105036       39.4172569442       35.2548000786  MEMB      66              0.0000000000
      8844        72  POPC      C310           40.8204703853       38.7718134906       37.2166409760  MEMB      66              0.0000000000
      8845        72  POPC      H10X           41.5627639478       39.5673671375       37.4435470830  MEMB      66              0.0000000000
      8846        72  POPC      H10Y           41.1618190488       37.8446514804       37.7202331248  MEMB      66              0.0000000000
      8847        72  POPC      C311           39.4454517252       39.1970506481       37.7583457438  MEMB      66              0.0000000000
      8848        72  POPC      H11X           38.7318628267       38.3471103592       37.6852297058  MEMB      66              0.0000000000
      8849        72  POPC      H11Y           39.0601168156       40.0051532809       37.0934829571  MEMB      66              0.0000000000
      8850        72  POPC      C312           39.4606915894       39.7540944954       39.1900966507  MEMB      66              0.0000000000
      8851        72  POPC      H12X           38.4473021628       40.1633553827       39.4087433440  MEMB      66              0.0000000000
      8852        72  POPC      H12Y           40.1819914721       40.5992777356       39.2485856573  MEMB      66              0.0000000000
      8853        72  POPC      C313           39.8085540397       38.7347067678       40.2820934165  MEMB      66              0.0000000000
      8854        72  POPC      H13X           40.8758415408       38.4336649589       40.1806970813  MEMB      66              0.0000000000
      8855        72  POPC      H13Y           39.1832569164       37.8216015378       40.1592717920  MEMB      66              0.0000000000
      8856        72  POPC      C314           39.5667647950       39.3125453260       41.6863169319  MEMB      66              0.0000000000
      8857        72  POPC      H14X           38.4697949830       39.4342207135       41.8403004398  MEMB      66              0.0000000000
      8858        72  POPC      H14Y           40.0349800955       40.3206390603       41.7532942509  MEMB      66              0.0000000000
      8859        72  POPC      C315           40.1375928071       38.4368759874       42.8063526746  MEMB      66              0.0000000000
      8860        72  POPC      H15X           41.2479319474       38.4337434462       42.7284187538  MEMB      66              0.0000000000
      8861        72  POPC      H15Y           39.7915750772       37.3933692054       42.6478334938  MEMB      66              0.0000000000
      8862        72  POPC      C316           39.7100245562       38.8837462850       44.2055896257  MEMB      66              0.0000000000
      8863        72  POPC      H16X           38.6072671239       38.7955675378       44.3107554346  MEMB      66              0.0000000000
      8864        72  POPC      H16Y           39.9868334751       39.9411344156       44.3879739002  MEMB      66              0.0000000000
      8865        72  POPC      H16Z           40.1910920967       38.2529145056       44.9842560537  MEMB      66              0.0000000000
      8866        73  POPC      N              37.4718953669       29.9744857596       25.7949255297  MEMB      67              0.0000000000
      8867        73  POPC      C12            36.7677805087       28.7501345554       25.2040066060  MEMB      67              0.0000000000
      8868        73  POPC      H12A           36.8254664009       28.7834892113       24.1204327131  MEMB      67              0.0000000000
      8869        73  POPC      H12B           35.7112091629       28.7829030064       25.4666097125  MEMB      67              0.0000000000
      8870        73  POPC      C13            37.3885092374       29.9393024895       27.2956846766  MEMB      67              0.0000000000
      8871        73  POPC      H13A           37.8097689573       30.8099848836       27.7903304920  MEMB      67              0.0000000000
      8872        73  POPC      H13B           36.3538328763       29.7841428326       27.5880696552  MEMB      67              0.0000000000
      8873        73  POPC      H13C           37.9115349490       29.0582137017       27.6628041000  MEMB      67              0.0000000000
      8874        73  POPC      C14            38.9134517371       29.9987466388       25.4166949967  MEMB      67              0.0000000000
      8875        73  POPC      H14A           39.3987533870       29.0899523097       25.7680365244  MEMB      67              0.0000000000
      8876        73  POPC      H14B           39.0292157659       30.0494861193       24.3294161400  MEMB      67              0.0000000000
      8877        73  POPC      H14C           39.4050425723       30.8665006194       25.8459330902  MEMB      67              0.0000000000
      8878        73  POPC      C15            36.7938656046       31.1964341492       25.2711583974  MEMB      67              0.0000000000
      8879        73  POPC      H15A           36.8518584977       31.2491587228       24.1820175027  MEMB      67              0.0000000000
      8880        73  POPC      H15B           37.2760922538       32.0861883482       25.6475786410  MEMB      67              0.0000000000
      8881        73  POPC      H15C           35.7483120772       31.2231412789       25.5455008160  MEMB      67              0.0000000000
      8882        73  POPC      C11            37.2100392693       27.3559798821       25.6776800637  MEMB      67              0.0000000000
      8883        73  POPC      H11A           38.3205380616       27.2645171150       25.6577537319  MEMB      67              0.0000000000
      8884        73  POPC      H11B           36.7834625709       26.6018346844       24.9694933854  MEMB      67              0.0000000000
      8885        73  POPC      P              36.9037923202       25.7246604941       27.6502116099  MEMB      67              0.0000000000
      8886        73  POPC      O13            36.4847314261       24.6663320248       26.7041538058  MEMB      67              0.0000000000
      8887        73  POPC      O14            36.2787917549       25.7430333625       28.9904495591  MEMB      67              0.0000000000
      8888        73  POPC      O12            36.6844821926       27.1526175170       26.9867069843  MEMB      67              0.0000000000
      8889        73  POPC      O11            38.4773031336       25.7681955257       27.8279899946  MEMB      67              0.0000000000
      8890        73  POPC      C1             39.0772839712       26.9226148333       28.4388339355  MEMB      67              0.0000000000
      8891        73  POPC      HA             38.3548462938       27.7466234725       28.6480576093  MEMB      67              0.0000000000
      8892        73  POPC      HB             39.8529857435       27.3163863487       27.7467646645  MEMB      67              0.0000000000
      8893        73  POPC      C2             39.7518037169       26.6508101904       29.8114176133  MEMB      67              0.0000000000
      8894        73  POPC      HS             40.5042949715       25.8380858355       29.6908317943  MEMB      67              0.0000000000
      8895        73  POPC      O21            38.7843593948       26.3307236767       30.8244658017  MEMB      67              0.0000000000
      8896        73  POPC      C21            38.4001663267       25.0631925443       30.8677508868  MEMB      67              0.0000000000
      8897        73  POPC      O22            38.8022606119       24.1522047137       30.1659748763  MEMB      67              0.0000000000
      8898        73  POPC      C22            37.4862911165       24.8836387171       32.0901164048  MEMB      67              0.0000000000
      8899        73  POPC      H2R            36.4956612447       25.3079770112       31.8275296949  MEMB      67              0.0000000000
      8900        73  POPC      H2S            37.9076997068       25.4943320072       32.9131757186  MEMB      67              0.0000000000
      8901        73  POPC      C3             40.4966951182       27.9407399890       30.2664773815  MEMB      67              0.0000000000
      8902        73  POPC      HX             41.2017803446       28.2277376211       29.4576431929  MEMB      67              0.0000000000
      8903        73  POPC      HY             41.1242336898       27.7093768236       31.1520537983  MEMB      67              0.0000000000
      8904        73  POPC      O31            39.5665587449       29.0294285781       30.4834501844  MEMB      67              0.0000000000
      8905        73  POPC      C31            39.3330175026       29.3506915536       31.7619879209  MEMB      67              0.0000000000
      8906        73  POPC      O32            39.9570046025       28.9201699335       32.7140420491  MEMB      67              0.0000000000
      8907        73  POPC      C32            38.1277469208       30.3015578962       31.8411873725  MEMB      67              0.0000000000
      8908        73  POPC      H2X            37.2478243436       29.7422119044       31.4640425761  MEMB      67              0.0000000000
      8909        73  POPC      H2Y            38.3323661509       31.1381210754       31.1389761940  MEMB      67              0.0000000000
      8910        73  POPC      C23            37.3493728350       23.4012959327       32.5247231961  MEMB      67              0.0000000000
      8911        73  POPC      H3R            38.0943616349       22.7526383916       32.0124509146  MEMB      67              0.0000000000
      8912        73  POPC      H3S            36.3457269184       23.0469583567       32.2038032458  MEMB      67              0.0000000000
      8913        73  POPC      C24            37.5255650789       23.1605409350       34.0365803802  MEMB      67              0.0000000000
      8914        73  POPC      H4R            37.3213808672       22.0862788951       34.2438528663  MEMB      67              0.0000000000
      8915        73  POPC      H4S            36.7674739222       23.7610624765       34.5849781329  MEMB      67              0.0000000000
      8916        73  POPC      C25            38.9242322941       23.4985285848       34.5781616967  MEMB      67              0.0000000000
      8917        73  POPC      H5R            39.1230318006       24.5844833259       34.4371645185  MEMB      67              0.0000000000
      8918        73  POPC      H5S            39.6874217902       22.9275696048       34.0080424644  MEMB      67              0.0000000000
      8919        73  POPC      C26            39.0948944199       23.1631235984       36.0673445717  MEMB      67              0.0000000000
      8920        73  POPC      H6R            39.2220408815       22.0635407819       36.1789692795  MEMB      67              0.0000000000
      8921        73  POPC      H6S            38.1716439749       23.4676618347       36.6034204173  MEMB      67              0.0000000000
      8922        73  POPC      C27            40.2616921589       23.9015893816       36.7390882796  MEMB      67              0.0000000000
      8923        73  POPC      H7R            40.9988014585       24.1826216066       35.9567842959  MEMB      67              0.0000000000
      8924        73  POPC      H7S            40.7883392632       23.2241010508       37.4436179730  MEMB      67              0.0000000000
      8925        73  POPC      C28            39.7568863178       25.1259225475       37.5294019175  MEMB      67              0.0000000000
      8926        73  POPC      H8R            39.2594523541       24.7701992868       38.4597130177  MEMB      67              0.0000000000
      8927        73  POPC      H8S            38.9722209405       25.6225811258       36.9145079640  MEMB      67              0.0000000000
      8928        73  POPC      C29            40.8464784354       26.1229988199       37.8045779451  MEMB      67              0.0000000000
      8929        73  POPC      H91            41.2948772989       26.5541713953       36.8963881675  MEMB      67              0.0000000000
      8930        73  POPC      C210           41.3206430572       26.5468547337       38.9852885854  MEMB      67              0.0000000000
      8931        73  POPC      H101           42.1429548215       27.2676224475       38.9426572269  MEMB      67              0.0000000000
      8932        73  POPC      C211           40.9233815314       26.1659306856       40.3908686769  MEMB      67              0.0000000000
      8933        73  POPC      H11R           41.8427347182       25.9479969275       40.9780820534  MEMB      67              0.0000000000
      8934        73  POPC      H11S           40.3084048454       25.2393752822       40.4132272855  MEMB      67              0.0000000000
      8935        73  POPC      C212           40.1320827115       27.2766606203       41.1138964298  MEMB      67              0.0000000000
      8936        73  POPC      H12R           39.0630364798       27.0383193171       40.9388530143  MEMB      67              0.0000000000
      8937        73  POPC      H12S           40.3038654695       28.2790615046       40.6735515813  MEMB      67              0.0000000000
      8938        73  POPC      C213           40.3723219875       27.3530083595       42.6347084705  MEMB      67              0.0000000000
      8939        73  POPC      H13R           40.3302264622       26.3130369128       43.0268200329  MEMB      67              0.0000000000
      8940        73  POPC      H13S           39.5535047552       27.9330470708       43.1078805903  MEMB      67              0.0000000000
      8941        73  POPC      C214           41.7080139300       27.9876801274       43.0648901841  MEMB      67              0.0000000000
      8942        73  POPC      H14R           42.4362713871       27.8585639466       42.2421471157  MEMB      67              0.0000000000
      8943        73  POPC      H14S           42.1095700297       27.4109520304       43.9285701357  MEMB      67              0.0000000000
      8944        73  POPC      C215           41.6390520024       29.4778509266       43.4726755572  MEMB      67              0.0000000000
      8945        73  POPC      H15R           40.6393108227       29.9006110011       43.2409100137  MEMB      67              0.0000000000
      8946        73  POPC      H15S           42.3831141119       30.0489439035       42.8762291734  MEMB      67              0.0000000000
      8947        73  POPC      C216           41.9817987261       29.6973649647       44.9537979289  MEMB      67              0.0000000000
      8948        73  POPC      H16R           42.8937037331       29.0985915931       45.1745303068  MEMB      67              0.0000000000
      8949        73  POPC      H16S           41.1554320868       29.3008756641       45.5693083752  MEMB      67              0.0000000000
      8950        73  POPC      C217           42.2477595203       31.1540125926       45.3567087692  MEMB      67              0.0000000000
      8951        73  POPC      H17R           43.0184034968       31.1715014843       46.1604921144  MEMB      67              0.0000000000
      8952        73  POPC      H17S           42.6757931846       31.7017144633       44.4902733524  MEMB      67              0.0000000000
      8953        73  POPC      C218           41.0186046329       31.8819824161       45.9007288549  MEMB      67              0.0000000000
      8954        73  POPC      H18R           41.2394155018       32.9615754831       46.0329568607  MEMB      67              0.0000000000
      8955        73  POPC      H18S           40.7224829358       31.4749604492       46.8895668466  MEMB      67              0.0000000000
      8956        73  POPC      H18T           40.1583934103       31.7687503452       45.2106931015  MEMB      67              0.0000000000
      8957        73  POPC      C33            37.8163944249       30.8938137430       33.2500430917  MEMB      67              0.0000000000
      8958        73  POPC      H3X            36.9191700404       31.5454772824       33.1504140330  MEMB      67              0.0000000000
      8959        73  POPC      H3Y            38.6559136232       31.5511157201       33.5657518965  MEMB      67              0.0000000000
      8960        73  POPC      C34            37.5394295450       29.8837057711       34.3850781532  MEMB      67              0.0000000000
      8961        73  POPC      H4X            37.2481933362       30.4464461664       35.3007051957  MEMB      67              0.0000000000
      8962        73  POPC      H4Y            38.4772293116       29.3386080133       34.6360901776  MEMB      67              0.0000000000
      8963        73  POPC      C35            36.4527065480       28.8453829146       34.0658463797  MEMB      67              0.0000000000
      8964        73  POPC      H5X            36.7910621497       28.2381124986       33.1933844858  MEMB      67              0.0000000000
      8965        73  POPC      H5Y            35.5112282202       29.3558850299       33.7736294745  MEMB      67              0.0000000000
      8966        73  POPC      C36            36.1750563037       27.8715851704       35.2263632638  MEMB      67              0.0000000000
      8967        73  POPC      H6X            36.9679986733       27.9788699159       35.9986031394  MEMB      67              0.0000000000
      8968        73  POPC      H6Y            36.2465087338       26.8339020873       34.8271164321  MEMB      67              0.0000000000
      8969        73  POPC      C37            34.7951115137       28.0508272779       35.8831454630  MEMB      67              0.0000000000
      8970        73  POPC      H7X            34.0269971427       28.1555402683       35.0829413306  MEMB      67              0.0000000000
      8971        73  POPC      H7Y            34.7840693960       28.9853682223       36.4859486361  MEMB      67              0.0000000000
      8972        73  POPC      C38            34.3776416908       26.8559297708       36.7593147236  MEMB      67              0.0000000000
      8973        73  POPC      H8X            34.2956243462       25.9598857823       36.1005422286  MEMB      67              0.0000000000
      8974        73  POPC      H8Y            33.3709665026       27.0490718409       37.1884655061  MEMB      67              0.0000000000
      8975        73  POPC      C39            35.3403070891       26.5186788878       37.9070377256  MEMB      67              0.0000000000
      8976        73  POPC      H9X            36.3736856403       26.4062234263       37.5119556028  MEMB      67              0.0000000000
      8977        73  POPC      H9Y            35.0455018198       25.5311730357       38.3250888308  MEMB      67              0.0000000000
      8978        73  POPC      C310           35.3332000030       27.5379508882       39.0534807084  MEMB      67              0.0000000000
      8979        73  POPC      H10X           34.3365297971       27.5416047072       39.5481796993  MEMB      67              0.0000000000
      8980        73  POPC      H10Y           35.5147950768       28.5550336653       38.6412300557  MEMB      67              0.0000000000
      8981        73  POPC      C311           36.4238607590       27.2288547806       40.0861872944  MEMB      67              0.0000000000
      8982        73  POPC      H11X           37.3919796760       27.1748423751       39.5355925689  MEMB      67              0.0000000000
      8983        73  POPC      H11Y           36.2504598104       26.2332655803       40.5477700564  MEMB      67              0.0000000000
      8984        73  POPC      C312           36.5467700491       28.2914221698       41.1878661752  MEMB      67              0.0000000000
      8985        73  POPC      H12X           36.4968841657       29.3048101691       40.7327590755  MEMB      67              0.0000000000
      8986        73  POPC      H12Y           37.5469058276       28.1941129084       41.6591230440  MEMB      67              0.0000000000
      8987        73  POPC      C313           35.5049230326       28.1634548012       42.3057676183  MEMB      67              0.0000000000
      8988        73  POPC      H13X           35.3801279916       27.0995069920       42.6061240705  MEMB      67              0.0000000000
      8989        73  POPC      H13Y           34.5302896182       28.5252183635       41.9060327491  MEMB      67              0.0000000000
      8990        73  POPC      C314           35.8941277609       28.9960967852       43.5385050027  MEMB      67              0.0000000000
      8991        73  POPC      H14X           34.9813263697       29.1856334120       44.1420069813  MEMB      67              0.0000000000
      8992        73  POPC      H14Y           36.2747563266       29.9725695659       43.1583746068  MEMB      67              0.0000000000
      8993        73  POPC      C315           36.9657508891       28.3266907929       44.4153174311  MEMB      67              0.0000000000
      8994        73  POPC      H15X           37.5439035293       27.6259956852       43.7716221893  MEMB      67              0.0000000000
      8995        73  POPC      H15Y           36.4799382795       27.6913523560       45.1885780235  MEMB      67              0.0000000000
      8996        73  POPC      C316           37.9624244448       29.2943640226       45.0665875152  MEMB      67              0.0000000000
      8997        73  POPC      H16X           37.5000864709       29.9129889369       45.8549505818  MEMB      67              0.0000000000
      8998        73  POPC      H16Y           38.4122441796       29.9661290544       44.3041934636  MEMB      67              0.0000000000
      8999        73  POPC      H16Z           38.7901651138       28.7285635395       45.5415716656  MEMB      67              0.0000000000
      9000        74  POPS      N              32.1846342700       39.0838052709       25.7649087776  MEMB      68              0.0000000000
      9001        74  POPS      HN1            33.0840519438       38.5582061937       25.8118647641  MEMB      68              0.0000000000
      9002        74  POPS      HN2            31.8049944206       39.3032478855       26.7027164277  MEMB      68              0.0000000000
      9003        74  POPS      HN3            31.5220226886       38.4916817816       25.2284242738  MEMB      68              0.0000000000
      9004        74  POPS      C12            32.5061446929       40.3571319089       25.0554729941  MEMB      68              0.0000000000
      9005        74  POPS      H12A           31.5966384420       40.7407979173       24.6303973318  MEMB      68              0.0000000000
      9006        74  POPS      C13            33.4740138074       40.1341776749       23.8773903170  MEMB      68              0.0000000000
      9007        74  POPS      O13A           33.8928212344       38.9711804007       23.6244538337  MEMB      68              0.0000000000
      9008        74  POPS      O13B           33.6998540887       41.1180553328       23.1234655539  MEMB      68              0.0000000000
      9009        74  POPS      C11            32.9886084553       41.4271002363       26.0718083805  MEMB      68              0.0000000000
      9010        74  POPS      H11A           33.4734833605       42.2746504221       25.5308266970  MEMB      68              0.0000000000
      9011        74  POPS      H11B           33.7558470315       40.9927425926       26.7569826932  MEMB      68              0.0000000000
      9012        74  POPS      P              31.9648877110       42.8710001986       28.0257621195  MEMB      68              0.0000000000
      9013        74  POPS      O13            30.8463851878       43.8461117057       27.9915705786  MEMB      68              0.0000000000
      9014        74  POPS      O14            33.3308668548       43.4255539958       28.0138063730  MEMB      68              0.0000000000
      9015        74  POPS      O12            31.8337788618       41.8969727735       26.7754186876  MEMB      68              0.0000000000
      9016        74  POPS      O11            31.7436628224       41.8478681342       29.2234574821  MEMB      68              0.0000000000
      9017        74  POPS      C1             30.7791454131       40.7849409358       29.0674208631  MEMB      68              0.0000000000
      9018        74  POPS      HA             31.2064762588       39.9751700208       28.4380138325  MEMB      68              0.0000000000
      9019        74  POPS      HB             29.8586565911       41.1621347238       28.5641818542  MEMB      68              0.0000000000
      9020        74  POPS      C2             30.2753102627       40.1225380608       30.4032489713  MEMB      68              0.0000000000
      9021        74  POPS      HS             29.1689460949       39.9973295719       30.3236083611  MEMB      68              0.0000000000
      9022        74  POPS      O21            30.6217236631       40.9142764867       31.5527798266  MEMB      68              0.0000000000
      9023        74  POPS      C21            29.8652270499       41.9843727048       31.7130453994  MEMB      68              0.0000000000
      9024        74  POPS      O22            28.7693766024       42.1600941037       31.2040755297  MEMB      68              0.0000000000
      9025        74  POPS      C22            30.5393155374       42.9511307392       32.6880890513  MEMB      68              0.0000000000
      9026        74  POPS      H2R            30.4981148911       43.9564026114       32.2206386797  MEMB      68              0.0000000000
      9027        74  POPS      H2S            31.6064871635       42.6680091878       32.7943580031  MEMB      68              0.0000000000
      9028        74  POPS      C3             30.8327854967       38.6763518642       30.5992053203  MEMB      68              0.0000000000
      9029        74  POPS      HX             30.5160361141       38.0464580598       29.7350817886  MEMB      68              0.0000000000
      9030        74  POPS      HY             30.3237699680       38.2642178463       31.5035656397  MEMB      68              0.0000000000
      9031        74  POPS      O31            32.2761125949       38.6835539327       30.6937450705  MEMB      68              0.0000000000
      9032        74  POPS      C31            32.7935300953       38.1580683953       31.7913713611  MEMB      68              0.0000000000
      9033        74  POPS      O32            32.2100320277       37.4237180686       32.5725751236  MEMB      68              0.0000000000
      9034        74  POPS      C32            34.2713504536       38.5381912330       31.9033209832  MEMB      68              0.0000000000
      9035        74  POPS      H2X            34.7549872755       38.3348783507       30.9261311120  MEMB      68              0.0000000000
      9036        74  POPS      H2Y            34.7297816947       37.8810331608       32.6718143757  MEMB      68              0.0000000000
      9037        74  POPS      C23            29.8529450583       42.9826447168       34.0752175800  MEMB      68              0.0000000000
      9038        74  POPS      H3R            28.8141564500       43.3731482979       33.9846878758  MEMB      68              0.0000000000
      9039        74  POPS      H3S            30.4205122775       43.6914468496       34.7219432710  MEMB      68              0.0000000000
      9040        74  POPS      C24            29.8163446362       41.6179578312       34.7849092195  MEMB      68              0.0000000000
      9041        74  POPS      H4R            29.1233693612       40.9349193843       34.2428775270  MEMB      68              0.0000000000
      9042        74  POPS      H4S            29.3977805799       41.7702611495       35.8054467906  MEMB      68              0.0000000000
      9043        74  POPS      C25            31.1887490089       40.9324463801       34.8889190082  MEMB      68              0.0000000000
      9044        74  POPS      H5R            31.9421523621       41.6485571527       35.2857963716  MEMB      68              0.0000000000
      9045        74  POPS      H5S            31.5270545080       40.6271838454       33.8724341044  MEMB      68              0.0000000000
      9046        74  POPS      C26            31.1587666926       39.6819496341       35.7755080600  MEMB      68              0.0000000000
      9047        74  POPS      H6R            32.0582675837       39.0573781872       35.5569907749  MEMB      68              0.0000000000
      9048        74  POPS      H6S            30.2651339144       39.0720963515       35.5248765140  MEMB      68              0.0000000000
      9049        74  POPS      C27            31.1951487145       40.0323514522       37.2704272877  MEMB      68              0.0000000000
      9050        74  POPS      H7R            30.3875084738       40.7445008635       37.5438993947  MEMB      68              0.0000000000
      9051        74  POPS      H7S            32.1661153752       40.5411111289       37.4478529467  MEMB      68              0.0000000000
      9052        74  POPS      C28            31.1527480451       38.8028758000       38.1864938624  MEMB      68              0.0000000000
      9053        74  POPS      H8R            31.4827573423       39.1219910165       39.2001137156  MEMB      68              0.0000000000
      9054        74  POPS      H8S            31.9079514294       38.0661728379       37.8235189059  MEMB      68              0.0000000000
      9055        74  POPS      C29            29.7784900702       38.1914329323       38.2088759743  MEMB      68              0.0000000000
      9056        74  POPS      H91            29.1913019725       38.3125115801       37.2848029607  MEMB      68              0.0000000000
      9057        74  POPS      C210           29.2360808419       37.5219654823       39.2350535672  MEMB      68              0.0000000000
      9058        74  POPS      H101           28.2070105975       37.1420703418       39.1315673318  MEMB      68              0.0000000000
      9059        74  POPS      C211           29.8923315404       37.2528072764       40.5638305553  MEMB      68              0.0000000000
      9060        74  POPS      H11R           30.9102331872       37.7008434695       40.6314878799  MEMB      68              0.0000000000
      9061        74  POPS      H11S           30.0252677660       36.1627519240       40.7206357291  MEMB      68              0.0000000000
      9062        74  POPS      C212           29.0289923647       37.8160790896       41.7030463550  MEMB      68              0.0000000000
      9063        74  POPS      H12R           28.4424861527       36.9863497722       42.1560439015  MEMB      68              0.0000000000
      9064        74  POPS      H12S           28.2922736729       38.5601957743       41.3191626480  MEMB      68              0.0000000000
      9065        74  POPS      C213           29.8376478742       38.5408280542       42.7835779955  MEMB      68              0.0000000000
      9066        74  POPS      H13R           30.7212064332       37.9392373918       43.0918264548  MEMB      68              0.0000000000
      9067        74  POPS      H13S           29.1873275599       38.6731775672       43.6759034247  MEMB      68              0.0000000000
      9068        74  POPS      C214           30.2690647132       39.9481210380       42.3426273940  MEMB      68              0.0000000000
      9069        74  POPS      H14R           29.3783014291       40.4801290355       41.9415208993  MEMB      68              0.0000000000
      9070        74  POPS      H14S           31.0149526526       39.8670142955       41.5213242479  MEMB      68              0.0000000000
      9071        74  POPS      C215           30.8555179522       40.7797300102       43.4900913643  MEMB      68              0.0000000000
      9072        74  POPS      H15R           30.0895274743       40.8836071402       44.2898292597  MEMB      68              0.0000000000
      9073        74  POPS      H15S           31.0888360765       41.8000271693       43.1114815307  MEMB      68              0.0000000000
      9074        74  POPS      C216           32.1331018441       40.1754843890       44.0869440869  MEMB      68              0.0000000000
      9075        74  POPS      H16R           32.8688932720       40.9903953279       44.2637621768  MEMB      68              0.0000000000
      9076        74  POPS      H16S           32.5925604514       39.4585707861       43.3680904192  MEMB      68              0.0000000000
      9077        74  POPS      C217           31.8991896815       39.4608397665       45.4251097770  MEMB      68              0.0000000000
      9078        74  POPS      H17R           31.2434833211       38.5769751405       45.2627535617  MEMB      68              0.0000000000
      9079        74  POPS      H17S           31.3772885231       40.1435632459       46.1233660284  MEMB      68              0.0000000000
      9080        74  POPS      C218           33.1900402028       39.0054924482       46.0970793073  MEMB      68              0.0000000000
      9081        74  POPS      H18R           33.8657132849       39.8696876238       46.2514795420  MEMB      68              0.0000000000
      9082        74  POPS      H18S           33.7100136053       38.2590825524       45.4561992204  MEMB      68              0.0000000000
      9083        74  POPS      H18T           32.9858027907       38.5262566723       47.0780985518  MEMB      68              0.0000000000
      9084        74  POPS      C33            34.5085873259       40.0188258091       32.2960362743  MEMB      68              0.0000000000
      9085        74  POPS      H3X            34.0156308229       40.2117519413       33.2749602869  MEMB      68              0.0000000000
      9086        74  POPS      H3Y            34.0406360787       40.6958599233       31.5425267195  MEMB      68              0.0000000000
      9087        74  POPS      C34            36.0141633021       40.3383751296       32.4033235336  MEMB      68              0.0000000000
      9088        74  POPS      H4X            36.4683774359       40.1650509143       31.3966431175  MEMB      68              0.0000000000
      9089        74  POPS      H4Y            36.4906945723       39.6433339751       33.1283813117  MEMB      68              0.0000000000
      9090        74  POPS      C35            36.3284729732       41.7861785259       32.8164567825  MEMB      68              0.0000000000
      9091        74  POPS      H5X            35.8712704390       42.4689344432       32.0632293548  MEMB      68              0.0000000000
      9092        74  POPS      H5Y            37.4307316093       41.9461652795       32.7746999657  MEMB      68              0.0000000000
      9093        74  POPS      C36            35.8215180931       42.1910091491       34.2080409384  MEMB      68              0.0000000000
      9094        74  POPS      H6X            36.3414273171       41.5866059246       34.9849038882  MEMB      68              0.0000000000
      9095        74  POPS      H6Y            34.7323097277       41.9817632122       34.2854768538  MEMB      68              0.0000000000
      9096        74  POPS      C37            36.0459930157       43.6876706907       34.4821189221  MEMB      68              0.0000000000
      9097        74  POPS      H7X            35.4263547012       44.2858804420       33.7774426203  MEMB      68              0.0000000000
      9098        74  POPS      H7Y            37.1131242226       43.9290363189       34.2761576896  MEMB      68              0.0000000000
      9099        74  POPS      C38            35.7233726243       44.1117546902       35.9229901413  MEMB      68              0.0000000000
      9100        74  POPS      H8X            36.1130009000       45.1430017028       36.0842800900  MEMB      68              0.0000000000
      9101        74  POPS      H8Y            36.2567223708       43.4328123722       36.6238661670  MEMB      68              0.0000000000
      9102        74  POPS      C39            34.2188197292       44.1141925076       36.2311010397  MEMB      68              0.0000000000
      9103        74  POPS      H9X            33.8113948834       43.0910800443       36.0917822349  MEMB      68              0.0000000000
      9104        74  POPS      H9Y            33.7134255745       44.7705724257       35.4870216785  MEMB      68              0.0000000000
      9105        74  POPS      C310           33.8796762957       44.6327352786       37.6399334461  MEMB      68              0.0000000000
      9106        74  POPS      H10X           32.7756164164       44.7459150547       37.7287324395  MEMB      68              0.0000000000
      9107        74  POPS      H10Y           34.3328322529       45.6416255198       37.7499750567  MEMB      68              0.0000000000
      9108        74  POPS      C311           34.3703261054       43.7449852051       38.7969835259  MEMB      68              0.0000000000
      9109        74  POPS      H11X           34.2136341011       44.2928989647       39.7547206087  MEMB      68              0.0000000000
      9110        74  POPS      H11Y           35.4622996820       43.5671815898       38.6936173713  MEMB      68              0.0000000000
      9111        74  POPS      C312           33.6334870811       42.3985215977       38.8696241966  MEMB      68              0.0000000000
      9112        74  POPS      H12X           33.6087341703       41.9531765503       37.8518841832  MEMB      68              0.0000000000
      9113        74  POPS      H12Y           32.5840454644       42.5829393080       39.1904224858  MEMB      68              0.0000000000
      9114        74  POPS      C313           34.2853457923       41.3573725540       39.7910739783  MEMB      68              0.0000000000
      9115        74  POPS      H13X           35.2401463941       41.0210344727       39.3247708890  MEMB      68              0.0000000000
      9116        74  POPS      H13Y           33.6235518468       40.4623187436       39.8627328719  MEMB      68              0.0000000000
      9117        74  POPS      C314           34.5910355403       41.8696232685       41.2001855091  MEMB      68              0.0000000000
      9118        74  POPS      H14X           33.6547517690       42.2085952299       41.6981915523  MEMB      68              0.0000000000
      9119        74  POPS      H14Y           35.2757948886       42.7449562365       41.1286576210  MEMB      68              0.0000000000
      9120        74  POPS      C315           35.2799126393       40.8037995046       42.0521153691  MEMB      68              0.0000000000
      9121        74  POPS      H15X           36.1312832904       40.3713428340       41.4779364553  MEMB      68              0.0000000000
      9122        74  POPS      H15Y           34.5734815723       39.9641917739       42.2525694211  MEMB      68              0.0000000000
      9123        74  POPS      C316           35.8108284868       41.3596976252       43.3675096536  MEMB      68              0.0000000000
      9124        74  POPS      H16X           36.5365194684       42.1797779395       43.1833183694  MEMB      68              0.0000000000
      9125        74  POPS      H16Y           36.3248414956       40.5549543121       43.9344972192  MEMB      68              0.0000000000
      9126        74  POPS      H16Z           34.9813861206       41.7569853004       43.9893310409  MEMB      68              0.0000000000
      9127        75  POPS      N              27.9067117023       26.8025005546       24.9670972021  MEMB      69              0.0000000000
      9128        75  POPS      HN1            27.5886912105       25.8274046997       25.1472445813  MEMB      69              0.0000000000
      9129        75  POPS      HN2            27.6343851931       27.4147809472       25.7867121742  MEMB      69              0.0000000000
      9130        75  POPS      HN3            27.5086515212       27.1438143545       24.0750219741  MEMB      69              0.0000000000
      9131        75  POPS      C12            29.3939568687       26.7028332097       24.9537272314  MEMB      69              0.0000000000
      9132        75  POPS      H12A           29.7997344594       27.6618598092       24.6711046501  MEMB      69              0.0000000000
      9133        75  POPS      C13            29.9369181945       25.6716611693       23.9504407860  MEMB      69              0.0000000000
      9134        75  POPS      O13A           29.1518985877       25.0754406013       23.1668796296  MEMB      69              0.0000000000
      9135        75  POPS      O13B           31.1820868810       25.4798815912       23.9268275040  MEMB      69              0.0000000000
      9136        75  POPS      C11            29.8911909451       26.3159039053       26.3738790887  MEMB      69              0.0000000000
      9137        75  POPS      H11A           31.0001039412       26.2212043413       26.3697241784  MEMB      69              0.0000000000
      9138        75  POPS      H11B           29.5177132364       25.3120541066       26.6454508873  MEMB      69              0.0000000000
      9139        75  POPS      P              28.2035743735       27.2957084595       28.1564269659  MEMB      69              0.0000000000
      9140        75  POPS      O13            27.2822938839       28.1128585377       27.3244763422  MEMB      69              0.0000000000
      9141        75  POPS      O14            28.4554216828       27.6568713798       29.5546692320  MEMB      69              0.0000000000
      9142        75  POPS      O12            29.5493442624       27.2982920730       27.3414478675  MEMB      69              0.0000000000
      9143        75  POPS      O11            27.7319977725       25.7861323863       28.0878472737  MEMB      69              0.0000000000
      9144        75  POPS      C1             26.4033000383       25.3677651978       27.7652659312  MEMB      69              0.0000000000
      9145        75  POPS      HA             26.3440880859       25.0599100820       26.6988888275  MEMB      69              0.0000000000
      9146        75  POPS      HB             25.6603657777       26.1890950083       27.9194516066  MEMB      69              0.0000000000
      9147        75  POPS      C2             25.9264364025       24.1532000071       28.6376537070  MEMB      69              0.0000000000
      9148        75  POPS      HS             24.8116756880       24.1475683446       28.5853866160  MEMB      69              0.0000000000
      9149        75  POPS      O21            26.3424364617       24.2446681414       30.0042258804  MEMB      69              0.0000000000
      9150        75  POPS      C21            25.9804217595       25.3370971689       30.6512824484  MEMB      69              0.0000000000
      9151        75  POPS      O22            25.1227050952       26.1216980317       30.2794557959  MEMB      69              0.0000000000
      9152        75  POPS      C22            26.6688800685       25.3080881905       32.0157677647  MEMB      69              0.0000000000
      9153        75  POPS      H2R            27.7392067736       25.5453266236       31.8539178298  MEMB      69              0.0000000000
      9154        75  POPS      H2S            26.5800548003       24.2734086995       32.4132531519  MEMB      69              0.0000000000
      9155        75  POPS      C3             26.4022792318       22.7581790234       28.1207434566  MEMB      69              0.0000000000
      9156        75  POPS      HX             26.1847722383       22.6519751885       27.0349505953  MEMB      69              0.0000000000
      9157        75  POPS      HY             25.7995824551       21.9772513874       28.6422595225  MEMB      69              0.0000000000
      9158        75  POPS      O31            27.7884296364       22.5248417640       28.4443423690  MEMB      69              0.0000000000
      9159        75  POPS      C31            28.6599830176       22.9523858086       27.5401984005  MEMB      69              0.0000000000
      9160        75  POPS      O32            28.3753997840       23.2458078239       26.3900506223  MEMB      69              0.0000000000
      9161        75  POPS      C32            30.0483481398       23.0472418891       28.1837612493  MEMB      69              0.0000000000
      9162        75  POPS      H2X            30.7524696536       23.4149182791       27.4099788141  MEMB      69              0.0000000000
      9163        75  POPS      H2Y            30.3652060317       22.0343479715       28.5005112270  MEMB      69              0.0000000000
      9164        75  POPS      C23            26.0439653140       26.2998035474       33.0149958765  MEMB      69              0.0000000000
      9165        75  POPS      H3R            26.3042650302       25.9760614579       34.0493183881  MEMB      69              0.0000000000
      9166        75  POPS      H3S            24.9346193823       26.2847483092       32.9289989501  MEMB      69              0.0000000000
      9167        75  POPS      C24            26.5720433918       27.7234699889       32.8225475599  MEMB      69              0.0000000000
      9168        75  POPS      H4R            26.6062564626       27.9732015538       31.7354739758  MEMB      69              0.0000000000
      9169        75  POPS      H4S            27.6183025988       27.7611544388       33.1940226835  MEMB      69              0.0000000000
      9170        75  POPS      C25            25.6974294790       28.7612867377       33.5396949787  MEMB      69              0.0000000000
      9171        75  POPS      H5R            25.3621397330       28.3511755548       34.5157183510  MEMB      69              0.0000000000
      9172        75  POPS      H5S            24.7880680806       28.9192068873       32.9140887556  MEMB      69              0.0000000000
      9173        75  POPS      C26            26.4118008384       30.1036505680       33.7543703918  MEMB      69              0.0000000000
      9174        75  POPS      H6R            25.6745552024       30.9044915982       33.9785860212  MEMB      69              0.0000000000
      9175        75  POPS      H6S            26.9151554608       30.3759175390       32.7983436415  MEMB      69              0.0000000000
      9176        75  POPS      C27            27.4517203357       30.0733710364       34.8866533976  MEMB      69              0.0000000000
      9177        75  POPS      H7R            28.0951691198       30.9774537940       34.7922646618  MEMB      69              0.0000000000
      9178        75  POPS      H7S            28.1000339455       29.1801277775       34.7450331404  MEMB      69              0.0000000000
      9179        75  POPS      C28            26.8167082737       30.0627865396       36.2918897441  MEMB      69              0.0000000000
      9180        75  POPS      H8R            25.9941032448       29.3165306142       36.3044184839  MEMB      69              0.0000000000
      9181        75  POPS      H8S            26.3518886869       31.0603847463       36.4598113283  MEMB      69              0.0000000000
      9182        75  POPS      C29            27.8337173167       29.7809073317       37.3691752538  MEMB      69              0.0000000000
      9183        75  POPS      H91            28.8041459762       30.2708728152       37.2089229451  MEMB      69              0.0000000000
      9184        75  POPS      C210           27.6708247249       29.0019338387       38.4569131786  MEMB      69              0.0000000000
      9185        75  POPS      H101           28.5130744397       28.8904303551       39.1575403276  MEMB      69              0.0000000000
      9186        75  POPS      C211           26.4339039790       28.2314618747       38.8526147015  MEMB      69              0.0000000000
      9187        75  POPS      H11R           25.6132920650       28.3337308756       38.1087255346  MEMB      69              0.0000000000
      9188        75  POPS      H11S           26.0474928365       28.6384555650       39.8125459479  MEMB      69              0.0000000000
      9189        75  POPS      C212           26.7246618338       26.7282957631       39.0361192477  MEMB      69              0.0000000000
      9190        75  POPS      H12R           27.4780160793       26.5835008440       39.8420278409  MEMB      69              0.0000000000
      9191        75  POPS      H12S           27.1634695125       26.3242003030       38.0941706865  MEMB      69              0.0000000000
      9192        75  POPS      C213           25.4736149797       25.8926107619       39.3722366815  MEMB      69              0.0000000000
      9193        75  POPS      H13R           25.7855247444       24.8311427253       39.4996740514  MEMB      69              0.0000000000
      9194        75  POPS      H13S           24.7751822051       25.9368220988       38.5063481409  MEMB      69              0.0000000000
      9195        75  POPS      C214           24.7136258122       26.3366354561       40.6356045290  MEMB      69              0.0000000000
      9196        75  POPS      H14R           23.7901463710       25.7205116805       40.7285682723  MEMB      69              0.0000000000
      9197        75  POPS      H14S           24.3870245864       27.3939831194       40.5324615678  MEMB      69              0.0000000000
      9198        75  POPS      C215           25.5261750894       26.1732711440       41.9299455134  MEMB      69              0.0000000000
      9199        75  POPS      H15R           26.4662407284       26.7632245742       41.8573497795  MEMB      69              0.0000000000
      9200        75  POPS      H15S           25.8038640748       25.1007031339       42.0388898712  MEMB      69              0.0000000000
      9201        75  POPS      C216           24.7436876545       26.6226376276       43.1732733552  MEMB      69              0.0000000000
      9202        75  POPS      H16R           23.7348080812       26.1516687899       43.1569355068  MEMB      69              0.0000000000
      9203        75  POPS      H16S           24.5949469324       27.7250028501       43.1254289746  MEMB      69              0.0000000000
      9204        75  POPS      C217           25.4249141029       26.2598814053       44.5021619699  MEMB      69              0.0000000000
      9205        75  POPS      H17R           25.4632200816       25.1516703493       44.5959028522  MEMB      69              0.0000000000
      9206        75  POPS      H17S           24.7889583562       26.6394345951       45.3345077065  MEMB      69              0.0000000000
      9207        75  POPS      C218           26.8405216668       26.8165569688       44.6606720049  MEMB      69              0.0000000000
      9208        75  POPS      H18R           27.5406172310       26.3150128682       43.9620172951  MEMB      69              0.0000000000
      9209        75  POPS      H18S           27.2154609965       26.6597978651       45.6948039832  MEMB      69              0.0000000000
      9210        75  POPS      H18T           26.8572683786       27.9034326824       44.4353657511  MEMB      69              0.0000000000
      9211        75  POPS      C33            30.0391910513       24.0098717163       29.3944928755  MEMB      69              0.0000000000
      9212        75  POPS      H3X            29.2192293532       23.7436291522       30.0982142381  MEMB      69              0.0000000000
      9213        75  POPS      H3Y            29.8360347471       25.0407443288       29.0326620386  MEMB      69              0.0000000000
      9214        75  POPS      C34            31.3561126357       24.0658337877       30.1728168318  MEMB      69              0.0000000000
      9215        75  POPS      H4X            32.1721140179       24.2933181657       29.4471500937  MEMB      69              0.0000000000
      9216        75  POPS      H4Y            31.5592801193       23.0793240910       30.6368645100  MEMB      69              0.0000000000
      9217        75  POPS      C35            31.3465271538       25.1682579674       31.2458752186  MEMB      69              0.0000000000
      9218        75  POPS      H5X            30.9321215464       26.0941117937       30.7800220487  MEMB      69              0.0000000000
      9219        75  POPS      H5Y            32.3913819457       25.3924238153       31.5563812233  MEMB      69              0.0000000000
      9220        75  POPS      C36            30.5359467897       24.8284904760       32.5083382741  MEMB      69              0.0000000000
      9221        75  POPS      H6X            31.0487569720       24.0242654865       33.0766217370  MEMB      69              0.0000000000
      9222        75  POPS      H6Y            29.5412937515       24.4344522783       32.2115153274  MEMB      69              0.0000000000
      9223        75  POPS      C37            30.3223391613       26.0614470152       33.4035395611  MEMB      69              0.0000000000
      9224        75  POPS      H7X            29.7299517571       26.8014777513       32.8152779027  MEMB      69              0.0000000000
      9225        75  POPS      H7Y            31.3057616899       26.5272421844       33.6315360717  MEMB      69              0.0000000000
      9226        75  POPS      C38            29.5834668011       25.7694991304       34.7242982735  MEMB      69              0.0000000000
      9227        75  POPS      H8X            28.6576115058       25.1947032119       34.4983358235  MEMB      69              0.0000000000
      9228        75  POPS      H8Y            29.2692643865       26.7435528679       35.1668987892  MEMB      69              0.0000000000
      9229        75  POPS      C39            30.4362375295       25.0225213079       35.7682868724  MEMB      69              0.0000000000
      9230        75  POPS      H9X            31.4367350325       24.8065392749       35.3316798759  MEMB      69              0.0000000000
      9231        75  POPS      H9Y            29.9580552612       24.0450327218       35.9995282243  MEMB      69              0.0000000000
      9232        75  POPS      C310           30.6364417352       25.8133641110       37.0759154161  MEMB      69              0.0000000000
      9233        75  POPS      H10X           29.6515568603       26.0601040124       37.5296077852  MEMB      69              0.0000000000
      9234        75  POPS      H10Y           31.1312592039       26.7759016066       36.8131320374  MEMB      69              0.0000000000
      9235        75  POPS      C311           31.5125400976       25.0776930853       38.1066832530  MEMB      69              0.0000000000
      9236        75  POPS      H11X           31.9944876437       25.8105790655       38.7920680876  MEMB      69              0.0000000000
      9237        75  POPS      H11Y           32.3299226936       24.5563380529       37.5585047844  MEMB      69              0.0000000000
      9238        75  POPS      C312           30.7337179280       24.0610911245       38.9567578576  MEMB      69              0.0000000000
      9239        75  POPS      H12X           31.3867420394       23.1862260270       39.1783467128  MEMB      69              0.0000000000
      9240        75  POPS      H12Y           29.8638948494       23.6885320816       38.3716068252  MEMB      69              0.0000000000
      9241        75  POPS      C313           30.2507951239       24.6470238199       40.2933813824  MEMB      69              0.0000000000
      9242        75  POPS      H13X           29.8107645995       25.6554228572       40.1206224714  MEMB      69              0.0000000000
      9243        75  POPS      H13Y           31.1236730950       24.7666166641       40.9718586281  MEMB      69              0.0000000000
      9244        75  POPS      C314           29.1878784912       23.7646081785       40.9599401163  MEMB      69              0.0000000000
      9245        75  POPS      H14X           29.5607032642       22.7195473426       41.0335965707  MEMB      69              0.0000000000
      9246        75  POPS      H14Y           28.2891717355       23.7705909638       40.3008686603  MEMB      69              0.0000000000
      9247        75  POPS      C315           28.7571536367       24.2427124475       42.3503323900  MEMB      69              0.0000000000
      9248        75  POPS      H15X           27.7368248892       23.8424756258       42.5576969999  MEMB      69              0.0000000000
      9249        75  POPS      H15Y           28.6832651418       25.3529626147       42.3426354952  MEMB      69              0.0000000000
      9250        75  POPS      C316           29.6860027639       23.7745287159       43.4713034263  MEMB      69              0.0000000000
      9251        75  POPS      H16X           29.7517228161       22.6654794365       43.4842108083  MEMB      69              0.0000000000
      9252        75  POPS      H16Y           29.3041949815       24.1131515765       44.4583213306  MEMB      69              0.0000000000
      9253        75  POPS      H16Z           30.7078174637       24.1850243403       43.3295140962  MEMB      69              0.0000000000
      9254        76  POPC      N              24.3982254618       35.2899359874       26.7776064473  MEMB      70              0.0000000000
      9255        76  POPC      C12            25.4587056927       34.3375260421       27.3247395857  MEMB      70              0.0000000000
      9256        76  POPC      H12A           25.0753275534       33.3199316648       27.3275706750  MEMB      70              0.0000000000
      9257        76  POPC      H12B           25.6817426306       34.5964872184       28.3540717319  MEMB      70              0.0000000000
      9258        76  POPC      C13            24.0489734637       34.8613911552       25.3818469244  MEMB      70              0.0000000000
      9259        76  POPC      H13A           23.8098082083       33.8037448446       25.3428104322  MEMB      70              0.0000000000
      9260        76  POPC      H13B           23.2562849690       35.4377963769       24.9365307812  MEMB      70              0.0000000000
      9261        76  POPC      H13C           24.9341266773       35.0239020489       24.7582313066  MEMB      70              0.0000000000
      9262        76  POPC      C14            23.1953496925       35.3489239383       27.6549914593  MEMB      70              0.0000000000
      9263        76  POPC      H14A           23.4566993343       35.4708003848       28.7006377289  MEMB      70              0.0000000000
      9264        76  POPC      H14B           22.5840525778       36.2157768703       27.4105488404  MEMB      70              0.0000000000
      9265        76  POPC      H14C           22.5859639698       34.4615034607       27.5742566041  MEMB      70              0.0000000000
      9266        76  POPC      C15            24.9694889452       36.6766802522       26.6792693207  MEMB      70              0.0000000000
      9267        76  POPC      H15A           25.3529884228       37.0019680949       27.6359943042  MEMB      70              0.0000000000
      9268        76  POPC      H15B           24.2763069146       37.3868591865       26.2573297677  MEMB      70              0.0000000000
      9269        76  POPC      H15C           25.8451816283       36.6485505648       26.0187952999  MEMB      70              0.0000000000
      9270        76  POPC      C11            26.8385952396       34.3623123936       26.6246845644  MEMB      70              0.0000000000
      9271        76  POPC      H11A           26.7205159167       34.3012080310       25.5187815484  MEMB      70              0.0000000000
      9272        76  POPC      H11B           27.4174194822       33.4688524179       26.9628388145  MEMB      70              0.0000000000
      9273        76  POPC      P              28.9033259291       35.9305354013       26.3356285490  MEMB      70              0.0000000000
      9274        76  POPC      O13            29.5765830786       36.9082974269       27.2232374437  MEMB      70              0.0000000000
      9275        76  POPC      O14            28.7135291348       36.3545692137       24.9337460100  MEMB      70              0.0000000000
      9276        76  POPC      O12            27.5117833691       35.5587107836       27.0021866732  MEMB      70              0.0000000000
      9277        76  POPC      O11            29.6922571256       34.5595254264       26.3313914568  MEMB      70              0.0000000000
      9278        76  POPC      C1             30.8577627246       34.4092698823       27.1278356639  MEMB      70              0.0000000000
      9279        76  POPC      HA             31.4747427278       35.3358707121       27.1895777357  MEMB      70              0.0000000000
      9280        76  POPC      HB             31.5101452290       33.6370758662       26.6626649827  MEMB      70              0.0000000000
      9281        76  POPC      C2             30.4469577350       33.9143904997       28.5244860278  MEMB      70              0.0000000000
      9282        76  POPC      HS             29.7650492459       33.0447518224       28.3473633302  MEMB      70              0.0000000000
      9283        76  POPC      O21            29.8273441283       34.9840806562       29.2837070691  MEMB      70              0.0000000000
      9284        76  POPC      C21            28.6099404244       34.7186715580       29.7528514873  MEMB      70              0.0000000000
      9285        76  POPC      O22            28.0445866695       33.6417731633       29.6764600872  MEMB      70              0.0000000000
      9286        76  POPC      C22            28.0349803663       35.9199240524       30.5142568031  MEMB      70              0.0000000000
      9287        76  POPC      H2R            27.7589174535       36.6949210603       29.7732743652  MEMB      70              0.0000000000
      9288        76  POPC      H2S            28.8348706410       36.3230282190       31.1657271355  MEMB      70              0.0000000000
      9289        76  POPC      C3             31.6692190254       33.3729905415       29.2785103117  MEMB      70              0.0000000000
      9290        76  POPC      HX             32.3919954307       34.2068983881       29.4486447836  MEMB      70              0.0000000000
      9291        76  POPC      HY             32.1730222397       32.6068937413       28.6504329470  MEMB      70              0.0000000000
      9292        76  POPC      O31            31.1670497724       32.7536030772       30.4684275883  MEMB      70              0.0000000000
      9293        76  POPC      C31            31.2827178945       33.4747502999       31.5388516773  MEMB      70              0.0000000000
      9294        76  POPC      O32            32.2268208516       34.1995967682       31.8145117080  MEMB      70              0.0000000000
      9295        76  POPC      C32            30.1294945828       33.1499652507       32.4776090912  MEMB      70              0.0000000000
      9296        76  POPC      H2X            30.1017695640       32.0505825454       32.6251532928  MEMB      70              0.0000000000
      9297        76  POPC      H2Y            29.1790952093       33.4318844931       31.9814557323  MEMB      70              0.0000000000
      9298        76  POPC      C23            26.8084925986       35.4959172246       31.3692416031  MEMB      70              0.0000000000
      9299        76  POPC      H3R            27.0718465704       34.5687207717       31.9304118115  MEMB      70              0.0000000000
      9300        76  POPC      H3S            25.9539076135       35.2381772455       30.7059933311  MEMB      70              0.0000000000
      9301        76  POPC      C24            26.3523253511       36.5278065229       32.4186366698  MEMB      70              0.0000000000
      9302        76  POPC      H4R            25.9892133053       37.4416727255       31.8999554390  MEMB      70              0.0000000000
      9303        76  POPC      H4S            27.2200797142       36.8161657008       33.0513201031  MEMB      70              0.0000000000
      9304        76  POPC      C25            25.2374360557       35.9564838889       33.3199530935  MEMB      70              0.0000000000
      9305        76  POPC      H5R            25.5662306947       34.9740726954       33.7298976804  MEMB      70              0.0000000000
      9306        76  POPC      H5S            24.3428287737       35.7700984804       32.6836890457  MEMB      70              0.0000000000
      9307        76  POPC      C26            24.8059340350       36.8472781655       34.5062904229  MEMB      70              0.0000000000
      9308        76  POPC      H6R            23.8566829308       36.4285994386       34.9108091825  MEMB      70              0.0000000000
      9309        76  POPC      H6S            24.5946554861       37.8743168357       34.1406662601  MEMB      70              0.0000000000
      9310        76  POPC      C27            25.8320193828       36.8981591293       35.6522076125  MEMB      70              0.0000000000
      9311        76  POPC      H7R            26.7596969011       37.3551469728       35.2434300311  MEMB      70              0.0000000000
      9312        76  POPC      H7S            26.0740269647       35.8613005625       35.9770983589  MEMB      70              0.0000000000
      9313        76  POPC      C28            25.4214538604       37.7344665843       36.8858258871  MEMB      70              0.0000000000
      9314        76  POPC      H8R            25.3012040314       38.7915714652       36.5616622566  MEMB      70              0.0000000000
      9315        76  POPC      H8S            26.2866058809       37.7301782004       37.5878895751  MEMB      70              0.0000000000
      9316        76  POPC      C29            24.1703259037       37.2823094434       37.6002973788  MEMB      70              0.0000000000
      9317        76  POPC      H91            23.2293974358       37.6425670113       37.1574268041  MEMB      70              0.0000000000
      9318        76  POPC      C210           24.1003856255       36.4851754188       38.6833658831  MEMB      70              0.0000000000
      9319        76  POPC      H101           23.1092638196       36.2623190157       39.1125925213  MEMB      70              0.0000000000
      9320        76  POPC      C211           25.2583287613       35.8601413981       39.4209492272  MEMB      70              0.0000000000
      9321        76  POPC      H11R           26.1325351869       35.7342205744       38.7435910285  MEMB      70              0.0000000000
      9322        76  POPC      H11S           24.9697877941       34.8327434102       39.7398928896  MEMB      70              0.0000000000
      9323        76  POPC      C212           25.7342659234       36.6280754722       40.6738962273  MEMB      70              0.0000000000
      9324        76  POPC      H12R           26.2010746476       37.5931035814       40.3771017369  MEMB      70              0.0000000000
      9325        76  POPC      H12S           26.5204321965       36.0086653466       41.1632818044  MEMB      70              0.0000000000
      9326        76  POPC      C213           24.6226417279       36.9018680292       41.6983543899  MEMB      70              0.0000000000
      9327        76  POPC      H13R           23.9092781413       36.0473947774       41.6772634795  MEMB      70              0.0000000000
      9328        76  POPC      H13S           24.0748566919       37.8162204285       41.3983218804  MEMB      70              0.0000000000
      9329        76  POPC      C214           25.1127040741       37.0746455828       43.1456506223  MEMB      70              0.0000000000
      9330        76  POPC      H14R           25.7799448226       36.2200830757       43.3875999022  MEMB      70              0.0000000000
      9331        76  POPC      H14S           24.2305508972       37.0223726053       43.8229914504  MEMB      70              0.0000000000
      9332        76  POPC      C215           25.8232676329       38.4079256455       43.4231601574  MEMB      70              0.0000000000
      9333        76  POPC      H15R           25.1216176372       39.2493513484       43.2405654946  MEMB      70              0.0000000000
      9334        76  POPC      H15S           26.6563470529       38.5313710714       42.7043452586  MEMB      70              0.0000000000
      9335        76  POPC      C216           26.3837519860       38.5310898104       44.8519807019  MEMB      70              0.0000000000
      9336        76  POPC      H16R           25.5480388585       38.6212839661       45.5812131088  MEMB      70              0.0000000000
      9337        76  POPC      H16S           26.9778360450       39.4732036078       44.9034162318  MEMB      70              0.0000000000
      9338        76  POPC      C217           27.2801820491       37.3516517341       45.2626515376  MEMB      70              0.0000000000
      9339        76  POPC      H17R           27.7833476268       36.9610825831       44.3494000349  MEMB      70              0.0000000000
      9340        76  POPC      H17S           26.6451311460       36.5303619614       45.6637650610  MEMB      70              0.0000000000
      9341        76  POPC      C218           28.3630708254       37.7195335838       46.2795760207  MEMB      70              0.0000000000
      9342        76  POPC      H18R           28.9994097358       38.5391534932       45.8839546672  MEMB      70              0.0000000000
      9343        76  POPC      H18S           29.0269058509       36.8533555531       46.4740780487  MEMB      70              0.0000000000
      9344        76  POPC      H18T           27.9169403365       38.0627270597       47.2358142512  MEMB      70              0.0000000000
      9345        76  POPC      C33            30.2565118610       33.8813272321       33.8244808381  MEMB      70              0.0000000000
      9346        76  POPC      H3X            31.1929033665       34.4743495943       33.8960093968  MEMB      70              0.0000000000
      9347        76  POPC      H3Y            30.2609089466       33.1242279281       34.6380417528  MEMB      70              0.0000000000
      9348        76  POPC      C34            29.1298226860       34.8810924472       34.0784383701  MEMB      70              0.0000000000
      9349        76  POPC      H4X            28.1761878193       34.3392685096       34.2616484366  MEMB      70              0.0000000000
      9350        76  POPC      H4Y            28.9927530426       35.5083155681       33.1719205587  MEMB      70              0.0000000000
      9351        76  POPC      C35            29.4524910245       35.8221450568       35.2411873842  MEMB      70              0.0000000000
      9352        76  POPC      H5X            28.5377698339       36.3685934352       35.5506943460  MEMB      70              0.0000000000
      9353        76  POPC      H5Y            30.1914009863       36.5842046003       34.8919988102  MEMB      70              0.0000000000
      9354        76  POPC      C36            30.0494156818       35.1134377579       36.4610151571  MEMB      70              0.0000000000
      9355        76  POPC      H6X            30.2668489641       35.8821009114       37.2258703779  MEMB      70              0.0000000000
      9356        76  POPC      H6Y            31.0336408044       34.7018785821       36.1902868326  MEMB      70              0.0000000000
      9357        76  POPC      C37            29.1630166479       34.0159379167       37.0631379005  MEMB      70              0.0000000000
      9358        76  POPC      H7X            29.5666659729       33.0136399743       36.8027638586  MEMB      70              0.0000000000
      9359        76  POPC      H7Y            28.1369145525       34.0747891346       36.6297198641  MEMB      70              0.0000000000
      9360        76  POPC      C38            29.0381727909       34.1575750891       38.5823257423  MEMB      70              0.0000000000
      9361        76  POPC      H8X            28.2748844462       34.9359627028       38.8096507053  MEMB      70              0.0000000000
      9362        76  POPC      H8Y            29.9984963109       34.5154239933       39.0061136556  MEMB      70              0.0000000000
      9363        76  POPC      C39            28.6462485454       32.8604874861       39.2865512150  MEMB      70              0.0000000000
      9364        76  POPC      H9X            29.2556906535       32.0132838293       38.9013375445  MEMB      70              0.0000000000
      9365        76  POPC      H9Y            27.5775849867       32.6298549944       39.0665919606  MEMB      70              0.0000000000
      9366        76  POPC      C310           28.8604011142       32.9736284791       40.7970315012  MEMB      70              0.0000000000
      9367        76  POPC      H10X           28.2879938358       33.8487822454       41.1849863519  MEMB      70              0.0000000000
      9368        76  POPC      H10Y           29.9386570642       33.1480602488       40.9951286089  MEMB      70              0.0000000000
      9369        76  POPC      C311           28.4135553251       31.7187879446       41.5482098056  MEMB      70              0.0000000000
      9370        76  POPC      H11X           28.8763344621       30.8129722068       41.0954556699  MEMB      70              0.0000000000
      9371        76  POPC      H11Y           27.3106784486       31.6114990241       41.4268363806  MEMB      70              0.0000000000
      9372        76  POPC      C312           28.7700624382       31.7880753448       43.0383651242  MEMB      70              0.0000000000
      9373        76  POPC      H12X           29.0843355075       32.8234576395       43.2909396654  MEMB      70              0.0000000000
      9374        76  POPC      H12Y           29.6271413420       31.0995039819       43.2216943660  MEMB      70              0.0000000000
      9375        76  POPC      C313           27.6078535204       31.3962030337       43.9596138925  MEMB      70              0.0000000000
      9376        76  POPC      H13X           27.9932470175       31.1677069546       44.9760502153  MEMB      70              0.0000000000
      9377        76  POPC      H13Y           27.1531962157       30.4573999020       43.5666164294  MEMB      70              0.0000000000
      9378        76  POPC      C314           26.5068788059       32.4663890695       44.0591071359  MEMB      70              0.0000000000
      9379        76  POPC      H14X           25.5817729393       31.9945632713       44.4649340783  MEMB      70              0.0000000000
      9380        76  POPC      H14Y           26.2632089624       32.8418690392       43.0401481223  MEMB      70              0.0000000000
      9381        76  POPC      C315           26.8532755904       33.6635332126       44.9571227511  MEMB      70              0.0000000000
      9382        76  POPC      H15X           26.0836058360       34.4490609462       44.7748859331  MEMB      70              0.0000000000
      9383        76  POPC      H15Y           27.8289051738       34.1025245745       44.6630190925  MEMB      70              0.0000000000
      9384        76  POPC      C316           26.8407046961       33.3411516639       46.4511548480  MEMB      70              0.0000000000
      9385        76  POPC      H16X           25.8702018772       32.8766920152       46.7288281426  MEMB      70              0.0000000000
      9386        76  POPC      H16Y           26.9474114721       34.2696528315       47.0498323327  MEMB      70              0.0000000000
      9387        76  POPC      H16Z           27.6429983058       32.6302958707       46.7258961208  MEMB      70              0.0000000000
      9388        77  POPC      N              39.7890938925       46.8845408354       24.8271598698  MEMB      71              0.0000000000
      9389        77  POPC      C12            38.7371103524       45.7817658544       24.6364979289  MEMB      71              0.0000000000
      9390        77  POPC      H12A           38.3831649947       45.7813997682       23.6059495154  MEMB      71              0.0000000000
      9391        77  POPC      H12B           37.8653097412       46.0348091121       25.2408653027  MEMB      71              0.0000000000
      9392        77  POPC      C13            40.1837143548       46.9334128251       26.2597429937  MEMB      71              0.0000000000
      9393        77  POPC      H13A           41.1079355846       47.4727365359       26.3816356186  MEMB      71              0.0000000000
      9394        77  POPC      H13B           39.3912711938       47.3555010816       26.8657135592  MEMB      71              0.0000000000
      9395        77  POPC      H13C           40.2763294907       45.8925765934       26.5734093182  MEMB      71              0.0000000000
      9396        77  POPC      C14            40.9926624886       46.6510328542       23.9565954982  MEMB      71              0.0000000000
      9397        77  POPC      H14A           41.4674807542       45.6943443576       24.1792423934  MEMB      71              0.0000000000
      9398        77  POPC      H14B           40.6944475885       46.6416576335       22.9062551364  MEMB      71              0.0000000000
      9399        77  POPC      H14C           41.7323296464       47.4357349259       24.0503216893  MEMB      71              0.0000000000
      9400        77  POPC      C15            39.1812626820       48.1870580286       24.4359908445  MEMB      71              0.0000000000
      9401        77  POPC      H15A           38.8496297925       48.1485212064       23.4007368290  MEMB      71              0.0000000000
      9402        77  POPC      H15B           39.8793467695       49.0096103585       24.4813314171  MEMB      71              0.0000000000
      9403        77  POPC      H15C           38.2958040869       48.4464431343       25.0165464870  MEMB      71              0.0000000000
      9404        77  POPC      C11            39.1122218856       44.3403629062       25.0729294500  MEMB      71              0.0000000000
      9405        77  POPC      H11A           40.0927774211       44.0534600934       24.6279742116  MEMB      71              0.0000000000
      9406        77  POPC      H11B           38.3415054705       43.6351928762       24.6830531032  MEMB      71              0.0000000000
      9407        77  POPC      P              39.7470934444       43.0030856054       27.2438537715  MEMB      71              0.0000000000
      9408        77  POPC      O13            39.0376797050       41.7803496687       26.8141249334  MEMB      71              0.0000000000
      9409        77  POPC      O14            39.7935706892       43.3576172299       28.6781120731  MEMB      71              0.0000000000
      9410        77  POPC      O12            39.1271676112       44.2639977744       26.4957006991  MEMB      71              0.0000000000
      9411        77  POPC      O11            41.2368821957       43.0521253276       26.6783644615  MEMB      71              0.0000000000
      9412        77  POPC      C1             42.1689789612       44.0138507532       27.1989708008  MEMB      71              0.0000000000
      9413        77  POPC      HA             41.8012257092       44.5291224580       28.1223251178  MEMB      71              0.0000000000
      9414        77  POPC      HB             42.3473898453       44.7957066656       26.4319641929  MEMB      71              0.0000000000
      9415        77  POPC      C2             43.5427033475       43.3792386856       27.5687957301  MEMB      71              0.0000000000
      9416        77  POPC      HS             44.0238311217       43.0605747735       26.6168551793  MEMB      71              0.0000000000
      9417        77  POPC      O21            43.3607121064       42.2529227488       28.4455631439  MEMB      71              0.0000000000
      9418        77  POPC      C21            42.9000311212       41.1417501850       27.8411022230  MEMB      71              0.0000000000
      9419        77  POPC      O22            43.0103999060       40.8978287081       26.6486146287  MEMB      71              0.0000000000
      9420        77  POPC      C22            42.3923847722       40.1570335633       28.8959011068  MEMB      71              0.0000000000
      9421        77  POPC      H2R            43.2771914404       39.7361081666       29.4103684870  MEMB      71              0.0000000000
      9422        77  POPC      H2S            41.8733674736       39.3333370622       28.3608766552  MEMB      71              0.0000000000
      9423        77  POPC      C3             44.4938885766       44.4327344704       28.2345586227  MEMB      71              0.0000000000
      9424        77  POPC      HX             44.7915764114       45.1357415880       27.4262881703  MEMB      71              0.0000000000
      9425        77  POPC      HY             45.4232893196       43.9314474513       28.5738483811  MEMB      71              0.0000000000
      9426        77  POPC      O31            43.8536890450       45.1983896072       29.2773967318  MEMB      71              0.0000000000
      9427        77  POPC      C31            44.3200277162       45.0949334961       30.5176950952  MEMB      71              0.0000000000
      9428        77  POPC      O32            45.2703637791       44.4316253747       30.8811898414  MEMB      71              0.0000000000
      9429        77  POPC      C32            43.5535408753       46.1054679021       31.3668557287  MEMB      71              0.0000000000
      9430        77  POPC      H2X            42.4805966942       46.0347710552       31.0912627148  MEMB      71              0.0000000000
      9431        77  POPC      H2Y            43.9190434801       47.1183594976       31.1011617528  MEMB      71              0.0000000000
      9432        77  POPC      C23            41.4120317014       40.7873543682       29.9184503555  MEMB      71              0.0000000000
      9433        77  POPC      H3R            40.3833065974       40.7287813288       29.4887145470  MEMB      71              0.0000000000
      9434        77  POPC      H3S            41.6205698994       41.8710051642       30.0752160308  MEMB      71              0.0000000000
      9435        77  POPC      C24            41.4195822215       40.1152896490       31.3026882527  MEMB      71              0.0000000000
      9436        77  POPC      H4R            41.2748494368       39.0210101558       31.2034013192  MEMB      71              0.0000000000
      9437        77  POPC      H4S            40.5352445382       40.4987890607       31.8628196029  MEMB      71              0.0000000000
      9438        77  POPC      C25            42.6765724575       40.4455418240       32.1172100852  MEMB      71              0.0000000000
      9439        77  POPC      H5R            43.4093973456       40.9114413210       31.4434372347  MEMB      71              0.0000000000
      9440        77  POPC      H5S            43.1580373572       39.5311226400       32.5197035324  MEMB      71              0.0000000000
      9441        77  POPC      C26            42.3615795526       41.4343565140       33.2382140411  MEMB      71              0.0000000000
      9442        77  POPC      H6R            41.6629615495       40.9491715973       33.9520945721  MEMB      71              0.0000000000
      9443        77  POPC      H6S            41.8270795733       42.3035754668       32.7908832773  MEMB      71              0.0000000000
      9444        77  POPC      C27            43.5893992277       41.9569295104       33.9968087213  MEMB      71              0.0000000000
      9445        77  POPC      H7R            44.1574329864       42.6433795646       33.3287124344  MEMB      71              0.0000000000
      9446        77  POPC      H7S            44.2695472866       41.1115760961       34.2438077275  MEMB      71              0.0000000000
      9447        77  POPC      C28            43.2158429186       42.6847553660       35.3053300303  MEMB      71              0.0000000000
      9448        77  POPC      H8R            44.0416363570       43.3820101119       35.5698427669  MEMB      71              0.0000000000
      9449        77  POPC      H8S            43.1905858370       41.9100142468       36.1045144242  MEMB      71              0.0000000000
      9450        77  POPC      C29            41.8974522562       43.4227325472       35.2191329885  MEMB      71              0.0000000000
      9451        77  POPC      H91            41.7397147732       43.9897850016       34.2879028621  MEMB      71              0.0000000000
      9452        77  POPC      C210           40.9331009311       43.4383980561       36.1572076645  MEMB      71              0.0000000000
      9453        77  POPC      H101           40.0094405559       44.0096244631       35.9772403298  MEMB      71              0.0000000000
      9454        77  POPC      C211           41.0152098354       42.7121409265       37.4729347445  MEMB      71              0.0000000000
      9455        77  POPC      H11R           41.4194868828       41.6908724727       37.3085689614  MEMB      71              0.0000000000
      9456        77  POPC      H11S           40.0079605651       42.5764221564       37.9221230105  MEMB      71              0.0000000000
      9457        77  POPC      C212           41.9376775463       43.4402208915       38.4695034055  MEMB      71              0.0000000000
      9458        77  POPC      H12R           41.3572219377       44.1966868321       39.0396015285  MEMB      71              0.0000000000
      9459        77  POPC      H12S           42.7382147459       43.9905794501       37.9218760775  MEMB      71              0.0000000000
      9460        77  POPC      C213           42.6448163767       42.4788413550       39.4341209333  MEMB      71              0.0000000000
      9461        77  POPC      H13R           43.1030554399       41.6554781011       38.8398123103  MEMB      71              0.0000000000
      9462        77  POPC      H13S           41.8995732288       42.0239789980       40.1214106122  MEMB      71              0.0000000000
      9463        77  POPC      C214           43.7572421635       43.1796119835       40.2254976507  MEMB      71              0.0000000000
      9464        77  POPC      H14R           43.3289367788       43.9604503451       40.8892178218  MEMB      71              0.0000000000
      9465        77  POPC      H14S           44.4150497788       43.7007646599       39.4919460701  MEMB      71              0.0000000000
      9466        77  POPC      C215           44.6284677327       42.2130401106       41.0390035654  MEMB      71              0.0000000000
      9467        77  POPC      H15R           45.6729591617       42.5970706279       41.0113331693  MEMB      71              0.0000000000
      9468        77  POPC      H15S           44.6306679898       41.2085150635       40.5618520464  MEMB      71              0.0000000000
      9469        77  POPC      C216           44.2443979316       42.0973798306       42.5197854613  MEMB      71              0.0000000000
      9470        77  POPC      H16R           44.4343967487       43.0745309269       43.0170890162  MEMB      71              0.0000000000
      9471        77  POPC      H16S           44.9114779612       41.3501198114       43.0041076425  MEMB      71              0.0000000000
      9472        77  POPC      C217           42.7857794974       41.7068116204       42.7787526549  MEMB      71              0.0000000000
      9473        77  POPC      H17R           42.5493746947       40.7589550737       42.2449168683  MEMB      71              0.0000000000
      9474        77  POPC      H17S           42.1184563379       42.5004063030       42.3704975917  MEMB      71              0.0000000000
      9475        77  POPC      C218           42.5030326221       41.5511484203       44.2709638268  MEMB      71              0.0000000000
      9476        77  POPC      H18R           41.4155443527       41.4567981303       44.4641117907  MEMB      71              0.0000000000
      9477        77  POPC      H18S           42.8809341072       42.4416179071       44.8105489417  MEMB      71              0.0000000000
      9478        77  POPC      H18T           43.0247164283       40.6639072165       44.6879076438  MEMB      71              0.0000000000
      9479        77  POPC      C33            43.6901461697       45.8906685627       32.8862238779  MEMB      71              0.0000000000
      9480        77  POPC      H3X            44.7590234315       45.9770374867       33.1896838824  MEMB      71              0.0000000000
      9481        77  POPC      H3Y            43.3468947419       44.8654799904       33.1450676937  MEMB      71              0.0000000000
      9482        77  POPC      C34            42.8577930171       46.9305411424       33.6560702694  MEMB      71              0.0000000000
      9483        77  POPC      H4X            41.8168776646       46.9540503078       33.2652741459  MEMB      71              0.0000000000
      9484        77  POPC      H4Y            43.3128133432       47.9257767863       33.4518488462  MEMB      71              0.0000000000
      9485        77  POPC      C35            42.8172934954       46.6836928288       35.1710590349  MEMB      71              0.0000000000
      9486        77  POPC      H5X            43.7319798253       46.1172535755       35.4492752244  MEMB      71              0.0000000000
      9487        77  POPC      H5Y            41.9540712578       46.0424641533       35.4388099880  MEMB      71              0.0000000000
      9488        77  POPC      C36            42.7592100370       47.9666246504       36.0123009921  MEMB      71              0.0000000000
      9489        77  POPC      H6X            43.2244033039       48.7996105093       35.4410940677  MEMB      71              0.0000000000
      9490        77  POPC      H6Y            43.3772131004       47.8312105830       36.9258704454  MEMB      71              0.0000000000
      9491        77  POPC      C37            41.3359463229       48.3714831368       36.4256695077  MEMB      71              0.0000000000
      9492        77  POPC      H7X            40.6662057978       48.3411032895       35.5386663357  MEMB      71              0.0000000000
      9493        77  POPC      H7Y            41.3775613211       49.4252097062       36.7698974400  MEMB      71              0.0000000000
      9494        77  POPC      C38            40.7201334276       47.5566550114       37.5772054683  MEMB      71              0.0000000000
      9495        77  POPC      H8X            40.4829190168       46.5251122181       37.2360084449  MEMB      71              0.0000000000
      9496        77  POPC      H8Y            39.7596406561       48.0453247580       37.8610668941  MEMB      71              0.0000000000
      9497        77  POPC      C39            41.6226871386       47.4835974711       38.8181109142  MEMB      71              0.0000000000
      9498        77  POPC      H9X            42.0899713700       48.4791760354       38.9935944738  MEMB      71              0.0000000000
      9499        77  POPC      H9Y            42.4427668927       46.7545914460       38.6235359519  MEMB      71              0.0000000000
      9500        77  POPC      C310           40.8787603395       47.0664283775       40.0921530490  MEMB      71              0.0000000000
      9501        77  POPC      H10X           40.3190751203       46.1238613364       39.8980048454  MEMB      71              0.0000000000
      9502        77  POPC      H10Y           40.1440742389       47.8553324082       40.3684547670  MEMB      71              0.0000000000
      9503        77  POPC      C311           41.8412993231       46.8363019825       41.2617211964  MEMB      71              0.0000000000
      9504        77  POPC      H11X           42.4534519552       47.7505864614       41.4318515395  MEMB      71              0.0000000000
      9505        77  POPC      H11Y           42.5340018900       46.0112276092       40.9813454769  MEMB      71              0.0000000000
      9506        77  POPC      C312           41.1285805848       46.4654084609       42.5663194708  MEMB      71              0.0000000000
      9507        77  POPC      H12X           40.3633651778       45.6828703355       42.3646442816  MEMB      71              0.0000000000
      9508        77  POPC      H12Y           40.6063264247       47.3656329209       42.9604677848  MEMB      71              0.0000000000
      9509        77  POPC      C313           42.1091623835       45.9333732261       43.6175361760  MEMB      71              0.0000000000
      9510        77  POPC      H13X           42.9854294208       46.6166413028       43.6709235316  MEMB      71              0.0000000000
      9511        77  POPC      H13Y           42.4764210102       44.9323071897       43.2984359585  MEMB      71              0.0000000000
      9512        77  POPC      C314           41.4951605971       45.8452163924       45.0165247519  MEMB      71              0.0000000000
      9513        77  POPC      H14X           40.5079314824       45.3342304726       44.9706786649  MEMB      71              0.0000000000
      9514        77  POPC      H14Y           41.3293352649       46.8851059516       45.3827739464  MEMB      71              0.0000000000
      9515        77  POPC      C315           42.3897452422       45.1017741675       46.0090785120  MEMB      71              0.0000000000
      9516        77  POPC      H15X           43.4558931126       45.2485902823       45.7308825944  MEMB      71              0.0000000000
      9517        77  POPC      H15Y           42.1739727357       44.0157326198       45.9301516841  MEMB      71              0.0000000000
      9518        77  POPC      C316           42.1766277579       45.5507190778       47.4501168181  MEMB      71              0.0000000000
      9519        77  POPC      H16X           42.8956375147       45.0575726975       48.1378338663  MEMB      71              0.0000000000
      9520        77  POPC      H16Y           41.1474225683       45.2969993937       47.7722072323  MEMB      71              0.0000000000
      9521        77  POPC      H16Z           42.2981901584       46.6502824466       47.5383000735  MEMB      71              0.0000000000
      9522        78  POPC      N              36.4569736156       21.4960652705       25.2988405482  MEMB      72              0.0000000000
      9523        78  POPC      C12            36.7956010777       21.1362112763       26.7379006096  MEMB      72              0.0000000000
      9524        78  POPC      H12A           35.9489994885       20.5920740889       27.1384501212  MEMB      72              0.0000000000
      9525        78  POPC      H12B           36.8908721948       22.0594732567       27.3041526160  MEMB      72              0.0000000000
      9526        78  POPC      C13            37.6492695451       22.1326820288       24.6455029439  MEMB      72              0.0000000000
      9527        78  POPC      H13A           38.0110709782       22.9467152199       25.2755363056  MEMB      72              0.0000000000
      9528        78  POPC      H13B           38.4539572185       21.4048104780       24.5395606647  MEMB      72              0.0000000000
      9529        78  POPC      H13C           37.3691610667       22.5484283095       23.6837665153  MEMB      72              0.0000000000
      9530        78  POPC      C14            36.0771672280       20.2673646085       24.5383489313  MEMB      72              0.0000000000
      9531        78  POPC      H14A           36.8103405262       19.4874179841       24.7470709028  MEMB      72              0.0000000000
      9532        78  POPC      H14B           35.1289759668       19.8852097251       24.8931729265  MEMB      72              0.0000000000
      9533        78  POPC      H14C           36.0682480476       20.4154024470       23.4677960574  MEMB      72              0.0000000000
      9534        78  POPC      C15            35.3097306303       22.4684609081       25.2823811409  MEMB      72              0.0000000000
      9535        78  POPC      H15A           35.1493320864       22.8993395226       24.3010598246  MEMB      72              0.0000000000
      9536        78  POPC      H15B           35.5420124858       23.3361665742       25.9133580460  MEMB      72              0.0000000000
      9537        78  POPC      H15C           34.4028440313       22.0466773827       25.6903602769  MEMB      72              0.0000000000
      9538        78  POPC      C11            38.0165921238       20.2046871301       27.0377878830  MEMB      72              0.0000000000
      9539        78  POPC      H11A           38.1077812782       20.0620560873       28.1411116067  MEMB      72              0.0000000000
      9540        78  POPC      H11B           38.9415265898       20.7396132538       26.7363774413  MEMB      72              0.0000000000
      9541        78  POPC      P              36.9757903485       17.7876393032       26.8543748286  MEMB      72              0.0000000000
      9542        78  POPC      O13            37.6092249624       16.9644628004       27.8951248660  MEMB      72              0.0000000000
      9543        78  POPC      O14            36.4340556168       17.1610491951       25.6268714432  MEMB      72              0.0000000000
      9544        78  POPC      O12            37.9576077922       18.9314176614       26.3772220008  MEMB      72              0.0000000000
      9545        78  POPC      O11            35.8639742537       18.7086601496       27.4777887564  MEMB      72              0.0000000000
      9546        78  POPC      C1             34.4824575831       18.3996848326       27.3304763966  MEMB      72              0.0000000000
      9547        78  POPC      HA             34.2684051924       17.4149251314       26.8387683248  MEMB      72              0.0000000000
      9548        78  POPC      HB             34.0146351076       19.1820221463       26.6975855936  MEMB      72              0.0000000000
      9549        78  POPC      C2             33.7730221150       18.3668807647       28.7087207085  MEMB      72              0.0000000000
      9550        78  POPC      HS             32.6864867070       18.4689390778       28.4996535404  MEMB      72              0.0000000000
      9551        78  POPC      O21            34.2197291010       19.4140368634       29.5980903239  MEMB      72              0.0000000000
      9552        78  POPC      C21            33.9186248143       20.6453303091       29.2622403675  MEMB      72              0.0000000000
      9553        78  POPC      O22            33.2352999396       20.9730873019       28.3032462243  MEMB      72              0.0000000000
      9554        78  POPC      C22            34.2988597735       21.5353899094       30.4467796686  MEMB      72              0.0000000000
      9555        78  POPC      H2R            34.1303519301       22.5886052691       30.1591054494  MEMB      72              0.0000000000
      9556        78  POPC      H2S            35.3719618305       21.3932621410       30.6695480814  MEMB      72              0.0000000000
      9557        78  POPC      C3             33.9618420996       17.0012964258       29.4341161927  MEMB      72              0.0000000000
      9558        78  POPC      HX             33.7948202804       16.1751821586       28.7026546540  MEMB      72              0.0000000000
      9559        78  POPC      HY             33.1597970138       16.9258741121       30.1998489970  MEMB      72              0.0000000000
      9560        78  POPC      O31            35.2907905868       16.8912024938       29.9994950629  MEMB      72              0.0000000000
      9561        78  POPC      C31            35.4400322993       17.4022887240       31.2006679509  MEMB      72              0.0000000000
      9562        78  POPC      O32            34.5536430532       17.6487094481       32.0002451115  MEMB      72              0.0000000000
      9563        78  POPC      C32            36.9309661891       17.6717842814       31.4386986107  MEMB      72              0.0000000000
      9564        78  POPC      H2X            37.3332126027       18.0908884453       30.4902698501  MEMB      72              0.0000000000
      9565        78  POPC      H2Y            37.4365748833       16.7045276357       31.6106075274  MEMB      72              0.0000000000
      9566        78  POPC      C23            33.4473511918       21.1602874198       31.6907480025  MEMB      72              0.0000000000
      9567        78  POPC      H3R            33.6629611321       20.1056207310       31.9846332500  MEMB      72              0.0000000000
      9568        78  POPC      H3S            32.3665031424       21.2067857864       31.4342788333  MEMB      72              0.0000000000
      9569        78  POPC      C24            33.6866387460       22.0460407802       32.9203730096  MEMB      72              0.0000000000
      9570        78  POPC      H4R            33.4833603948       23.1086623902       32.6606704565  MEMB      72              0.0000000000
      9571        78  POPC      H4S            34.7562806554       21.9639063136       33.2073443275  MEMB      72              0.0000000000
      9572        78  POPC      C25            32.8057912062       21.6379015064       34.1180898316  MEMB      72              0.0000000000
      9573        78  POPC      H5R            32.8977441611       20.5402564958       34.2875067883  MEMB      72              0.0000000000
      9574        78  POPC      H5S            31.7409159828       21.8385120813       33.8618506767  MEMB      72              0.0000000000
      9575        78  POPC      C26            33.1629723069       22.3728380963       35.4225589820  MEMB      72              0.0000000000
      9576        78  POPC      H6R            32.3320226396       22.2521241698       36.1557843434  MEMB      72              0.0000000000
      9577        78  POPC      H6S            33.2714630492       23.4588210565       35.2099087346  MEMB      72              0.0000000000
      9578        78  POPC      C27            34.4530208095       21.8320909918       36.0543115725  MEMB      72              0.0000000000
      9579        78  POPC      H7R            35.2173790372       21.7116564032       35.2546942600  MEMB      72              0.0000000000
      9580        78  POPC      H7S            34.2432020703       20.8154308301       36.4581504666  MEMB      72              0.0000000000
      9581        78  POPC      C28            35.0263031955       22.7489064346       37.1445682302  MEMB      72              0.0000000000
      9582        78  POPC      H8R            34.2499786861       22.9153896882       37.9245427883  MEMB      72              0.0000000000
      9583        78  POPC      H8S            35.2575590998       23.7360217726       36.6853581987  MEMB      72              0.0000000000
      9584        78  POPC      C29            36.2798079965       22.1443590883       37.7190926332  MEMB      72              0.0000000000
      9585        78  POPC      H91            36.8946154020       21.5739306568       37.0043032290  MEMB      72              0.0000000000
      9586        78  POPC      C210           36.7008273721       22.2580848988       38.9866479105  MEMB      72              0.0000000000
      9587        78  POPC      H101           37.6219851670       21.7427648147       39.3009737791  MEMB      72              0.0000000000
      9588        78  POPC      C211           35.9777060668       23.0239355880       40.0566734584  MEMB      72              0.0000000000
      9589        78  POPC      H11R           35.0780446205       22.4612020934       40.3935401137  MEMB      72              0.0000000000
      9590        78  POPC      H11S           35.6203374296       23.9998060392       39.6636603126  MEMB      72              0.0000000000
      9591        78  POPC      C212           36.8682475258       23.2952550211       41.2792809936  MEMB      72              0.0000000000
      9592        78  POPC      H12R           36.3231605217       24.0371627889       41.9010146774  MEMB      72              0.0000000000
      9593        78  POPC      H12S           37.8290270875       23.7711695335       40.9850905049  MEMB      72              0.0000000000
      9594        78  POPC      C213           37.1317216443       22.0208304496       42.0969542190  MEMB      72              0.0000000000
      9595        78  POPC      H13R           37.9864548428       21.4655186361       41.6595706980  MEMB      72              0.0000000000
      9596        78  POPC      H13S           36.2445479085       21.3591667600       41.9990524856  MEMB      72              0.0000000000
      9597        78  POPC      C214           37.3347243949       22.2579782087       43.6012539916  MEMB      72              0.0000000000
      9598        78  POPC      H14R           38.2821146541       22.8110743194       43.7681581065  MEMB      72              0.0000000000
      9599        78  POPC      H14S           37.4324382289       21.2652987196       44.0975778452  MEMB      72              0.0000000000
      9600        78  POPC      C215           36.1514563967       23.0119429140       44.2307622712  MEMB      72              0.0000000000
      9601        78  POPC      H15R           35.2168163497       22.6845519514       43.7215492877  MEMB      72              0.0000000000
      9602        78  POPC      H15S           36.2704551762       24.1027624183       44.0426821088  MEMB      72              0.0000000000
      9603        78  POPC      C216           35.9712989681       22.7879987974       45.7365767671  MEMB      72              0.0000000000
      9604        78  POPC      H16R           36.9255121242       23.0113855766       46.2606857109  MEMB      72              0.0000000000
      9605        78  POPC      H16S           35.7318111962       21.7182753572       45.9257097521  MEMB      72              0.0000000000
      9606        78  POPC      C217           34.8572353257       23.6735122402       46.3165460169  MEMB      72              0.0000000000
      9607        78  POPC      H17R           35.0459541574       24.7291535315       46.0180454457  MEMB      72              0.0000000000
      9608        78  POPC      H17S           34.9065155964       23.6414424948       47.4242252016  MEMB      72              0.0000000000
      9609        78  POPC      C218           33.4456848986       23.2601067624       45.8905960217  MEMB      72              0.0000000000
      9610        78  POPC      H18R           32.6854502642       23.8624501188       46.4314542490  MEMB      72              0.0000000000
      9611        78  POPC      H18S           33.2609111166       22.1945011405       46.1300127669  MEMB      72              0.0000000000
      9612        78  POPC      H18T           33.3034414981       23.4003842382       44.7978490226  MEMB      72              0.0000000000
      9613        78  POPC      C33            37.2483668721       18.6566283141       32.5944213501  MEMB      72              0.0000000000
      9614        78  POPC      H3X            36.6116101223       19.5663285904       32.5401277943  MEMB      72              0.0000000000
      9615        78  POPC      H3Y            38.3033713489       18.9862708102       32.4540851758  MEMB      72              0.0000000000
      9616        78  POPC      C34            37.1678448056       18.0389323709       34.0032604256  MEMB      72              0.0000000000
      9617        78  POPC      H4X            37.6533309428       17.0361940810       33.9956453576  MEMB      72              0.0000000000
      9618        78  POPC      H4Y            36.0994411885       17.9008135523       34.2809274275  MEMB      72              0.0000000000
      9619        78  POPC      C35            37.8794985500       18.9074366588       35.0548403371  MEMB      72              0.0000000000
      9620        78  POPC      H5X            37.4513688451       19.9337484270       35.0403332220  MEMB      72              0.0000000000
      9621        78  POPC      H5Y            38.9512642971       18.9841206936       34.7555931883  MEMB      72              0.0000000000
      9622        78  POPC      C36            37.8280348552       18.3590819564       36.4953123862  MEMB      72              0.0000000000
      9623        78  POPC      H6X            38.6028942272       18.9046052145       37.0827973548  MEMB      72              0.0000000000
      9624        78  POPC      H6Y            38.1003834903       17.2803085484       36.4992543591  MEMB      72              0.0000000000
      9625        78  POPC      C37            36.4735214944       18.5699271176       37.1906252903  MEMB      72              0.0000000000
      9626        78  POPC      H7X            35.7366506233       17.8304577838       36.8129223875  MEMB      72              0.0000000000
      9627        78  POPC      H7Y            36.0872424197       19.5685343714       36.9018378228  MEMB      72              0.0000000000
      9628        78  POPC      C38            36.5433866766       18.4998534183       38.7272401533  MEMB      72              0.0000000000
      9629        78  POPC      H8X            37.3667230753       19.1500771176       39.0971423333  MEMB      72              0.0000000000
      9630        78  POPC      H8Y            36.7758531572       17.4538128492       39.0275027492  MEMB      72              0.0000000000
      9631        78  POPC      C39            35.2301933346       18.9478473391       39.3869999497  MEMB      72              0.0000000000
      9632        78  POPC      H9X            34.3853049789       18.4118492366       38.9058815818  MEMB      72              0.0000000000
      9633        78  POPC      H9Y            35.0617052162       20.0286801004       39.1951874735  MEMB      72              0.0000000000
      9634        78  POPC      C310           35.1674676534       18.6960112935       40.9008228515  MEMB      72              0.0000000000
      9635        78  POPC      H10X           35.9451860296       19.2924662639       41.4194142819  MEMB      72              0.0000000000
      9636        78  POPC      H10Y           35.3876220190       17.6208128123       41.0944712681  MEMB      72              0.0000000000
      9637        78  POPC      C311           33.7705800153       19.0102268150       41.4620609300  MEMB      72              0.0000000000
      9638        78  POPC      H11X           33.3342655879       18.0760141967       41.8782167925  MEMB      72              0.0000000000
      9639        78  POPC      H11Y           33.1245052155       19.3118787605       40.6053722760  MEMB      72              0.0000000000
      9640        78  POPC      C312           33.6924919219       20.1386351424       42.5061056923  MEMB      72              0.0000000000
      9641        78  POPC      H12X           32.6145932889       20.3403286552       42.7047534121  MEMB      72              0.0000000000
      9642        78  POPC      H12Y           34.1182312292       21.0722082388       42.0800769107  MEMB      72              0.0000000000
      9643        78  POPC      C313           34.3559779006       19.8408651140       43.8625563662  MEMB      72              0.0000000000
      9644        78  POPC      H13X           34.1008392782       20.6737666378       44.5533635957  MEMB      72              0.0000000000
      9645        78  POPC      H13Y           35.4622808581       19.8287576956       43.7499931048  MEMB      72              0.0000000000
      9646        78  POPC      C314           33.9033751248       18.5110123159       44.4804695360  MEMB      72              0.0000000000
      9647        78  POPC      H14X           34.4230580692       17.6989679515       43.9227611285  MEMB      72              0.0000000000
      9648        78  POPC      H14Y           32.8072042944       18.3854596350       44.3312067800  MEMB      72              0.0000000000
      9649        78  POPC      C315           34.2139355861       18.3548910707       45.9777850806  MEMB      72              0.0000000000
      9650        78  POPC      H15X           35.2872294089       18.5851460938       46.1506279418  MEMB      72              0.0000000000
      9651        78  POPC      H15Y           34.0465406189       17.2889802637       46.2556609809  MEMB      72              0.0000000000
      9652        78  POPC      C316           33.3676768673       19.2267370216       46.9078270789  MEMB      72              0.0000000000
      9653        78  POPC      H16X           32.2894825553       19.1434285013       46.6566192064  MEMB      72              0.0000000000
      9654        78  POPC      H16Y           33.6764994294       20.2878806333       46.8210323642  MEMB      72              0.0000000000
      9655        78  POPC      H16Z           33.5082986943       18.9165040855       47.9650666984  MEMB      72              0.0000000000
      9656        79  POPC      N              44.0416933510       31.5255435834       25.1594142898  MEMB      73              0.0000000000
      9657        79  POPC      C12            44.5540176458       31.7104169391       26.5831830856  MEMB      73              0.0000000000
      9658        79  POPC      H12A           44.3942092344       30.7961803551       27.1572812588  MEMB      73              0.0000000000
      9659        79  POPC      H12B           44.0021267881       32.5049226158       27.0651222722  MEMB      73              0.0000000000
      9660        79  POPC      C13            44.2406045003       32.8009061412       24.4028938070  MEMB      73              0.0000000000
      9661        79  POPC      H13A           45.2895769611       33.1057354810       24.5296101396  MEMB      73              0.0000000000
      9662        79  POPC      H13B           44.0595030260       32.6878188934       23.3417287433  MEMB      73              0.0000000000
      9663        79  POPC      H13C           43.6198063782       33.6187257657       24.7504290470  MEMB      73              0.0000000000
      9664        79  POPC      C14            44.8498010650       30.4652302678       24.4737016334  MEMB      73              0.0000000000
      9665        79  POPC      H14A           45.9084375343       30.6738319685       24.6703732301  MEMB      73              0.0000000000
      9666        79  POPC      H14B           44.6835062105       29.4887359042       24.8952957325  MEMB      73              0.0000000000
      9667        79  POPC      H14C           44.7367791431       30.4484358598       23.4012837962  MEMB      73              0.0000000000
      9668        79  POPC      C15            42.6113853549       31.1089055013       25.1729090277  MEMB      73              0.0000000000
      9669        79  POPC      H15A           41.9742563984       31.9334420356       25.4630865458  MEMB      73              0.0000000000
      9670        79  POPC      H15B           42.4344086908       30.2919719845       25.8704352385  MEMB      73              0.0000000000
      9671        79  POPC      H15C           42.3268775782       30.7784677936       24.1827955619  MEMB      73              0.0000000000
      9672        79  POPC      C11            46.0490954035       32.0516447034       26.7343161733  MEMB      73              0.0000000000
      9673        79  POPC      H11A           46.2453502615       32.3362163608       27.7986724020  MEMB      73              0.0000000000
      9674        79  POPC      H11B           46.3134446628       32.9484127715       26.1412326225  MEMB      73              0.0000000000
      9675        79  POPC      P              47.5770324598       30.0732970022       27.3513291979  MEMB      73              0.0000000000
      9676        79  POPC      O13            48.3869501950       30.9703808752       28.2035658302  MEMB      73              0.0000000000
      9677        79  POPC      O14            48.2908020002       29.0146333153       26.5948286053  MEMB      73              0.0000000000
      9678        79  POPC      O12            46.8493332176       30.9631817721       26.2852599857  MEMB      73              0.0000000000
      9679        79  POPC      O11            46.3422542549       29.4390224584       28.1496144090  MEMB      73              0.0000000000
      9680        79  POPC      C1             45.7642300681       28.1989755076       27.6919862524  MEMB      73              0.0000000000
      9681        79  POPC      HA             46.5580352923       27.4394992869       27.5109914082  MEMB      73              0.0000000000
      9682        79  POPC      HB             45.2441428631       28.3662639148       26.7240205189  MEMB      73              0.0000000000
      9683        79  POPC      C2             44.7124077196       27.5071109411       28.6549440069  MEMB      73              0.0000000000
      9684        79  POPC      HS             43.7597343642       27.3869456228       28.0826146133  MEMB      73              0.0000000000
      9685        79  POPC      O21            44.4493812215       28.2323705563       29.8609624927  MEMB      73              0.0000000000
      9686        79  POPC      C21            43.9582226306       29.4389663279       29.6528781878  MEMB      73              0.0000000000
      9687        79  POPC      O22            43.3385330259       29.7832887038       28.6527294879  MEMB      73              0.0000000000
      9688        79  POPC      C22            44.1693269808       30.2699252600       30.9171725548  MEMB      73              0.0000000000
      9689        79  POPC      H2R            44.7303929996       29.6551000396       31.6519678026  MEMB      73              0.0000000000
      9690        79  POPC      H2S            43.1689253143       30.4801219280       31.3426751605  MEMB      73              0.0000000000
      9691        79  POPC      C3             45.1454912970       26.0625744013       29.0606041003  MEMB      73              0.0000000000
      9692        79  POPC      HX             45.5058750721       25.5831194136       28.1409194671  MEMB      73              0.0000000000
      9693        79  POPC      HY             44.2461719723       25.4913991843       29.3984832086  MEMB      73              0.0000000000
      9694        79  POPC      O31            46.2515195377       26.0140679624       29.9822706289  MEMB      73              0.0000000000
      9695        79  POPC      C31            45.9240964733       25.7875794620       31.2601224153  MEMB      73              0.0000000000
      9696        79  POPC      O32            44.8061333105       25.4753033926       31.6201955336  MEMB      73              0.0000000000
      9697        79  POPC      C32            47.1643430078       25.7842982577       32.1770429722  MEMB      73              0.0000000000
      9698        79  POPC      H2X            48.0077907897       26.2738582086       31.6677910645  MEMB      73              0.0000000000
      9699        79  POPC      H2Y            47.4307112064       24.7210405737       32.3229004017  MEMB      73              0.0000000000
      9700        79  POPC      C23            44.9395705517       31.5819598923       30.6405178778  MEMB      73              0.0000000000
      9701        79  POPC      H3R            44.2965752787       32.2477439494       30.0192373554  MEMB      73              0.0000000000
      9702        79  POPC      H3S            45.8665960438       31.3619461736       30.0581468336  MEMB      73              0.0000000000
      9703        79  POPC      C24            45.3376180155       32.3264343415       31.9254262038  MEMB      73              0.0000000000
      9704        79  POPC      H4R            44.4339145687       32.4425258191       32.5594828303  MEMB      73              0.0000000000
      9705        79  POPC      H4S            45.6831711614       33.3524996944       31.6641158986  MEMB      73              0.0000000000
      9706        79  POPC      C25            46.4468009019       31.6278583208       32.7339734923  MEMB      73              0.0000000000
      9707        79  POPC      H5R            47.4058932665       32.1644012326       32.5540468010  MEMB      73              0.0000000000
      9708        79  POPC      H5S            46.5766854819       30.5854210600       32.3674382914  MEMB      73              0.0000000000
      9709        79  POPC      C26            46.1702845469       31.5650436017       34.2427794559  MEMB      73              0.0000000000
      9710        79  POPC      H6R            45.8346747802       32.5695794364       34.5821589766  MEMB      73              0.0000000000
      9711        79  POPC      H6S            47.1102469681       31.3194188813       34.7862064181  MEMB      73              0.0000000000
      9712        79  POPC      C27            45.1146047700       30.5057840820       34.5992317632  MEMB      73              0.0000000000
      9713        79  POPC      H7R            45.5356546462       29.4929835546       34.4034566648  MEMB      73              0.0000000000
      9714        79  POPC      H7S            44.2620200307       30.6304316983       33.8989771374  MEMB      73              0.0000000000
      9715        79  POPC      C28            44.6373064452       30.5868835298       36.0698002385  MEMB      73              0.0000000000
      9716        79  POPC      H8R            45.0792789919       31.5013091312       36.5240900675  MEMB      73              0.0000000000
      9717        79  POPC      H8S            45.0689420089       29.7164786216       36.6059094623  MEMB      73              0.0000000000
      9718        79  POPC      C29            43.1386222314       30.5743180574       36.2523412211  MEMB      73              0.0000000000
      9719        79  POPC      H91            42.5576879022       30.1395419906       35.4227991782  MEMB      73              0.0000000000
      9720        79  POPC      C210           42.4685440360       31.0752888627       37.3005981134  MEMB      73              0.0000000000
      9721        79  POPC      H101           41.3691652127       31.0032306591       37.3074056422  MEMB      73              0.0000000000
      9722        79  POPC      C211           43.0669514377       31.7455490772       38.5117209894  MEMB      73              0.0000000000
      9723        79  POPC      H11R           42.8895047639       32.8371441259       38.4492686539  MEMB      73              0.0000000000
      9724        79  POPC      H11S           44.1675171078       31.6013173522       38.5839020666  MEMB      73              0.0000000000
      9725        79  POPC      C212           42.4000495980       31.2030588941       39.7871232042  MEMB      73              0.0000000000
      9726        79  POPC      H12R           41.2948063413       31.3260840483       39.6960773050  MEMB      73              0.0000000000
      9727        79  POPC      H12S           42.6978974218       31.7563788657       40.6974483124  MEMB      73              0.0000000000
      9728        79  POPC      C213           42.7320136277       29.7351501387       40.0403859704  MEMB      73              0.0000000000
      9729        79  POPC      H13R           42.5849952559       29.1790625896       39.0929657344  MEMB      73              0.0000000000
      9730        79  POPC      H13S           42.0011256017       29.3503272656       40.7744745137  MEMB      73              0.0000000000
      9731        79  POPC      C214           44.1410985869       29.4493481757       40.5853705073  MEMB      73              0.0000000000
      9732        79  POPC      H14R           44.1670671867       29.6574859329       41.6755612087  MEMB      73              0.0000000000
      9733        79  POPC      H14S           44.8810607699       30.1229178088       40.1053618794  MEMB      73              0.0000000000
      9734        79  POPC      C215           44.5069728805       27.9865122114       40.2959550710  MEMB      73              0.0000000000
      9735        79  POPC      H15R           44.8504070884       27.9394399010       39.2418101928  MEMB      73              0.0000000000
      9736        79  POPC      H15S           43.5894810273       27.3676911620       40.3859335133  MEMB      73              0.0000000000
      9737        79  POPC      C216           45.5576073125       27.3356597559       41.1991678738  MEMB      73              0.0000000000
      9738        79  POPC      H16R           46.4350158200       28.0017197194       41.2840144510  MEMB      73              0.0000000000
      9739        79  POPC      H16S           45.9190332898       26.4014322688       40.7130406631  MEMB      73              0.0000000000
      9740        79  POPC      C217           44.9986409004       26.9300018927       42.5682754324  MEMB      73              0.0000000000
      9741        79  POPC      H17R           44.1199661389       26.2623385041       42.4117584118  MEMB      73              0.0000000000
      9742        79  POPC      H17S           44.6327920228       27.8324131026       43.1055404065  MEMB      73              0.0000000000
      9743        79  POPC      C218           46.0234691477       26.2003861573       43.4319158829  MEMB      73              0.0000000000
      9744        79  POPC      H18R           46.9523262356       26.8050380686       43.5058006859  MEMB      73              0.0000000000
      9745        79  POPC      H18S           46.2858117887       25.2209256016       42.9760269124  MEMB      73              0.0000000000
      9746        79  POPC      H18T           45.6291372691       26.0234840232       44.4553010066  MEMB      73              0.0000000000
      9747        79  POPC      C33            47.0110389811       26.4533154757       33.5712986812  MEMB      73              0.0000000000
      9748        79  POPC      H3X            46.0840396044       26.0909736531       34.0616477094  MEMB      73              0.0000000000
      9749        79  POPC      H3Y            46.9368873234       27.5548548890       33.4458771064  MEMB      73              0.0000000000
      9750        79  POPC      C34            48.1885104900       26.0949811681       34.4977478575  MEMB      73              0.0000000000
      9751        79  POPC      H4X            49.1450950564       26.2820785062       33.9627050179  MEMB      73              0.0000000000
      9752        79  POPC      H4Y            48.1243937202       24.9981448300       34.6901659134  MEMB      73              0.0000000000
      9753        79  POPC      C35            48.2276190257       26.8124327121       35.8661535066  MEMB      73              0.0000000000
      9754        79  POPC      H5X            48.9898908975       26.2888996379       36.4887957372  MEMB      73              0.0000000000
      9755        79  POPC      H5Y            47.2551826138       26.7028583672       36.3891166961  MEMB      73              0.0000000000
      9756        79  POPC      C36            48.6300251759       28.2990957749       35.8073422871  MEMB      73              0.0000000000
      9757        79  POPC      H6X            47.7438150242       28.9299311207       35.5903869445  MEMB      73              0.0000000000
      9758        79  POPC      H6Y            49.3383003582       28.4135537228       34.9606292879  MEMB      73              0.0000000000
      9759        79  POPC      C37            49.3927257461       28.8223196918       37.0466959071  MEMB      73              0.0000000000
      9760        79  POPC      H7X            49.7703097231       29.8445974904       36.8247692707  MEMB      73              0.0000000000
      9761        79  POPC      H7Y            50.2856921179       28.1716627639       37.1970646707  MEMB      73              0.0000000000
      9762        79  POPC      C38            48.5903577733       28.8558064623       38.3588152943  MEMB      73              0.0000000000
      9763        79  POPC      H8X            49.2742510136       29.0025822321       39.2243127097  MEMB      73              0.0000000000
      9764        79  POPC      H8Y            48.1020782642       27.8620172411       38.4761736029  MEMB      73              0.0000000000
      9765        79  POPC      C39            47.4771353361       29.9115752384       38.4113492545  MEMB      73              0.0000000000
      9766        79  POPC      H9X            46.7655735032       29.6193933165       39.2139450211  MEMB      73              0.0000000000
      9767        79  POPC      H9Y            46.9300998141       29.8747271814       37.4476870484  MEMB      73              0.0000000000
      9768        79  POPC      C310           47.9050428468       31.3669651767       38.6725106429  MEMB      73              0.0000000000
      9769        79  POPC      H10X           46.9848808919       31.9895213884       38.5622935312  MEMB      73              0.0000000000
      9770        79  POPC      H10Y           48.6192978402       31.7104413224       37.8948460302  MEMB      73              0.0000000000
      9771        79  POPC      C311           48.4713984011       31.6475184737       40.0776206378  MEMB      73              0.0000000000
      9772        79  POPC      H11X           49.5695941098       31.4710194568       40.0671724502  MEMB      73              0.0000000000
      9773        79  POPC      H11Y           48.0241995950       30.9405578837       40.8086693507  MEMB      73              0.0000000000
      9774        79  POPC      C312           48.1708906688       33.0897516919       40.5343731055  MEMB      73              0.0000000000
      9775        79  POPC      H12X           47.0943162366       33.1870751626       40.7872301088  MEMB      73              0.0000000000
      9776        79  POPC      H12Y           48.3561716953       33.7556083477       39.6620816900  MEMB      73              0.0000000000
      9777        79  POPC      C313           49.0512358700       33.6145998104       41.6859235742  MEMB      73              0.0000000000
      9778        79  POPC      H13X           49.0699757412       34.7258900006       41.6367003212  MEMB      73              0.0000000000
      9779        79  POPC      H13Y           50.0924976604       33.2566645653       41.5276535012  MEMB      73              0.0000000000
      9780        79  POPC      C314           48.5850144343       33.2461658762       43.1022339043  MEMB      73              0.0000000000
      9781        79  POPC      H14X           49.4019157401       33.4795478047       43.8235292596  MEMB      73              0.0000000000
      9782        79  POPC      H14Y           48.4220257050       32.1580383876       43.1372462121  MEMB      73              0.0000000000
      9783        79  POPC      C315           47.3197615568       33.9949830940       43.5438902855  MEMB      73              0.0000000000
      9784        79  POPC      H15X           46.5320974147       33.8801696120       42.7667119566  MEMB      73              0.0000000000
      9785        79  POPC      H15Y           47.5763895281       35.0772112514       43.6022211225  MEMB      73              0.0000000000
      9786        79  POPC      C316           46.7445841734       33.5508950289       44.8926460724  MEMB      73              0.0000000000
      9787        79  POPC      H16X           46.3901574545       32.5011992647       44.8410827923  MEMB      73              0.0000000000
      9788        79  POPC      H16Y           45.8765465407       34.1877620652       45.1679972617  MEMB      73              0.0000000000
      9789        79  POPC      H16Z           47.5089147898       33.6329162215       45.6947125208  MEMB      73              0.0000000000
      9790        80  POPC      N              27.2448815390       44.2203094198       27.8544588495  MEMB      74              0.0000000000
      9791        80  POPC      C12            28.0513838683       45.0149913586       26.8409473681  MEMB      74              0.0000000000
      9792        80  POPC      H12A           28.9944645769       44.4955965873       26.6679336034  MEMB      74              0.0000000000
      9793        80  POPC      H12B           28.3229032225       45.9499570893       27.3115565314  MEMB      74              0.0000000000
      9794        80  POPC      C13            26.3511123522       45.1398920518       28.6228088984  MEMB      74              0.0000000000
      9795        80  POPC      H13A           26.9034140995       45.8785599755       29.1821733033  MEMB      74              0.0000000000
      9796        80  POPC      H13B           25.7308707846       45.6904370082       27.9189031063  MEMB      74              0.0000000000
      9797        80  POPC      H13C           25.7018319159       44.5955756920       29.2943015899  MEMB      74              0.0000000000
      9798        80  POPC      C14            26.3765117191       43.2420189067       27.1194402866  MEMB      74              0.0000000000
      9799        80  POPC      H14A           25.7856449451       43.8108737653       26.3960847709  MEMB      74              0.0000000000
      9800        80  POPC      H14B           26.9579880747       42.5548668362       26.5288106640  MEMB      74              0.0000000000
      9801        80  POPC      H14C           25.6982172606       42.7288843054       27.7859144795  MEMB      74              0.0000000000
      9802        80  POPC      C15            28.1560136594       43.4922921453       28.7639856802  MEMB      74              0.0000000000
      9803        80  POPC      H15A           28.5933776601       42.6151752189       28.2942491106  MEMB      74              0.0000000000
      9804        80  POPC      H15B           27.6862225845       43.1758875396       29.6884114809  MEMB      74              0.0000000000
      9805        80  POPC      H15C           29.0354143357       44.0900292309       29.0241925183  MEMB      74              0.0000000000
      9806        80  POPC      C11            27.3926769544       45.3088515496       25.4578860295  MEMB      74              0.0000000000
      9807        80  POPC      H11A           27.5867076354       44.4448197881       24.7832536936  MEMB      74              0.0000000000
      9808        80  POPC      H11B           27.9265343329       46.1859343458       25.0115323710  MEMB      74              0.0000000000
      9809        80  POPC      P              25.2203061195       46.4320734740       24.4975811681  MEMB      74              0.0000000000
      9810        80  POPC      O13            23.9763679220       45.7609470048       24.0262494525  MEMB      74              0.0000000000
      9811        80  POPC      O14            26.1476426369       46.9558761993       23.4753504043  MEMB      74              0.0000000000
      9812        80  POPC      O12            25.9772328718       45.5100047535       25.5455254110  MEMB      74              0.0000000000
      9813        80  POPC      O11            24.7994455485       47.6384403625       25.3977163702  MEMB      74              0.0000000000
      9814        80  POPC      C1             24.0537950772       47.4090865881       26.5854903501  MEMB      74              0.0000000000
      9815        80  POPC      HA             24.1798698971       46.3822194299       26.9983198128  MEMB      74              0.0000000000
      9816        80  POPC      HB             22.9731162506       47.5611924475       26.3571732179  MEMB      74              0.0000000000
      9817        80  POPC      C2             24.4567133003       48.4350434974       27.6676652084  MEMB      74              0.0000000000
      9818        80  POPC      HS             24.3937547869       49.4166504350       27.1372701305  MEMB      74              0.0000000000
      9819        80  POPC      O21            25.7785094689       48.1407043651       28.1880090000  MEMB      74              0.0000000000
      9820        80  POPC      C21            26.4577728962       49.2507175639       28.4887763021  MEMB      74              0.0000000000
      9821        80  POPC      O22            26.1668545383       50.3721801007       28.1222305692  MEMB      74              0.0000000000
      9822        80  POPC      C22            27.6419131132       48.9291866490       29.3953016749  MEMB      74              0.0000000000
      9823        80  POPC      H2R            28.0889034916       49.9001865228       29.6954638668  MEMB      74              0.0000000000
      9824        80  POPC      H2S            28.3701188498       48.3766428919       28.7677454257  MEMB      74              0.0000000000
      9825        80  POPC      C3             23.4367006677       48.4866542679       28.8449582311  MEMB      74              0.0000000000
      9826        80  POPC      HX             22.4448430447       48.6995072683       28.3914510895  MEMB      74              0.0000000000
      9827        80  POPC      HY             23.6804918646       49.3621081033       29.4841277487  MEMB      74              0.0000000000
      9828        80  POPC      O31            23.4462374442       47.2960446309       29.6720354061  MEMB      74              0.0000000000
      9829        80  POPC      C31            22.6585660863       46.3145307266       29.2576749084  MEMB      74              0.0000000000
      9830        80  POPC      O32            21.9780489176       46.3180170297       28.2517348397  MEMB      74              0.0000000000
      9831        80  POPC      C32            22.8729053100       45.1226686026       30.1797922410  MEMB      74              0.0000000000
      9832        80  POPC      H2X            23.8906046491       44.7331389159       29.9872939772  MEMB      74              0.0000000000
      9833        80  POPC      H2Y            22.1574845536       44.3423759113       29.8789904766  MEMB      74              0.0000000000
      9834        80  POPC      C23            27.2756976388       48.0966909520       30.6474771683  MEMB      74              0.0000000000
      9835        80  POPC      H3R            28.2242917762       47.7428152003       31.1178323780  MEMB      74              0.0000000000
      9836        80  POPC      H3S            26.6946112354       47.1926276133       30.3693693180  MEMB      74              0.0000000000
      9837        80  POPC      C24            26.4841001643       48.8758554944       31.7072263952  MEMB      74              0.0000000000
      9838        80  POPC      H4R            25.5489778004       49.2927916355       31.2692604605  MEMB      74              0.0000000000
      9839        80  POPC      H4S            27.0947874334       49.7354303869       32.0651031815  MEMB      74              0.0000000000
      9840        80  POPC      C25            26.1262068691       47.9770288333       32.9022493206  MEMB      74              0.0000000000
      9841        80  POPC      H5R            27.0375472987       47.4255536398       33.2283535912  MEMB      74              0.0000000000
      9842        80  POPC      H5S            25.3794879992       47.2197140062       32.5796571641  MEMB      74              0.0000000000
      9843        80  POPC      C26            25.5817178080       48.7414618323       34.1205857754  MEMB      74              0.0000000000
      9844        80  POPC      H6R            24.7354770320       49.3915219734       33.8081208393  MEMB      74              0.0000000000
      9845        80  POPC      H6S            26.3915577394       49.3963653415       34.5095003513  MEMB      74              0.0000000000
      9846        80  POPC      C27            25.0935162785       47.7728676411       35.2145681280  MEMB      74              0.0000000000
      9847        80  POPC      H7R            25.8873926749       47.0196943322       35.4215324446  MEMB      74              0.0000000000
      9848        80  POPC      H7S            24.2249489680       47.2223697073       34.7947491107  MEMB      74              0.0000000000
      9849        80  POPC      C28            24.6420024764       48.4264387182       36.5338407019  MEMB      74              0.0000000000
      9850        80  POPC      H8R            24.1080184918       47.6590952866       37.1397641644  MEMB      74              0.0000000000
      9851        80  POPC      H8S            23.9018897699       49.2254391261       36.3065116176  MEMB      74              0.0000000000
      9852        80  POPC      C29            25.8218638060       48.9977242212       37.2760311722  MEMB      74              0.0000000000
      9853        80  POPC      H91            26.4504837017       49.6566489605       36.6644157046  MEMB      74              0.0000000000
      9854        80  POPC      C210           26.1903866628       48.7553503044       38.5469572887  MEMB      74              0.0000000000
      9855        80  POPC      H101           27.0752910746       49.2688999211       38.9552198276  MEMB      74              0.0000000000
      9856        80  POPC      C211           25.4838067219       47.8442612205       39.5113922766  MEMB      74              0.0000000000
      9857        80  POPC      H11R           26.1759551591       47.5233907190       40.3223168303  MEMB      74              0.0000000000
      9858        80  POPC      H11S           25.1424642704       46.9229594276       38.9933130145  MEMB      74              0.0000000000
      9859        80  POPC      C212           24.2537141713       48.5165178468       40.1314406070  MEMB      74              0.0000000000
      9860        80  POPC      H12R           23.5649456052       48.8495484491       39.3198658003  MEMB      74              0.0000000000
      9861        80  POPC      H12S           24.5507692861       49.4207956985       40.7073360212  MEMB      74              0.0000000000
      9862        80  POPC      C213           23.4905043411       47.5616254362       41.0515712498  MEMB      74              0.0000000000
      9863        80  POPC      H13R           24.1316206415       47.2810401945       41.9156337348  MEMB      74              0.0000000000
      9864        80  POPC      H13S           23.2496465724       46.6337194863       40.4838027411  MEMB      74              0.0000000000
      9865        80  POPC      C214           22.1878277994       48.1892009298       41.5426559789  MEMB      74              0.0000000000
      9866        80  POPC      H14R           21.6448738062       48.5880063625       40.6541489109  MEMB      74              0.0000000000
      9867        80  POPC      H14S           22.4150458516       49.0463256648       42.2125869884  MEMB      74              0.0000000000
      9868        80  POPC      C215           21.2562253120       47.1953269668       42.2430809414  MEMB      74              0.0000000000
      9869        80  POPC      H15R           21.0583271531       46.3481545903       41.5512045505  MEMB      74              0.0000000000
      9870        80  POPC      H15S           20.2916079825       47.7164950292       42.4132607899  MEMB      74              0.0000000000
      9871        80  POPC      C216           21.7727097420       46.6794517541       43.5938168289  MEMB      74              0.0000000000
      9872        80  POPC      H16R           21.8929657135       47.5419954731       44.2817604430  MEMB      74              0.0000000000
      9873        80  POPC      H16S           22.7734131488       46.2115437799       43.4672802754  MEMB      74              0.0000000000
      9874        80  POPC      C217           20.8333118397       45.6638045488       44.2577590866  MEMB      74              0.0000000000
      9875        80  POPC      H17R           19.8501541653       46.1437125479       44.4551887510  MEMB      74              0.0000000000
      9876        80  POPC      H17S           21.2580128291       45.3839698555       45.2470187275  MEMB      74              0.0000000000
      9877        80  POPC      C218           20.6186977534       44.3951245879       43.4327353153  MEMB      74              0.0000000000
      9878        80  POPC      H18R           20.1037120819       43.6218952737       44.0389493985  MEMB      74              0.0000000000
      9879        80  POPC      H18S           21.5943031121       43.9821290249       43.1008323937  MEMB      74              0.0000000000
      9880        80  POPC      H18T           20.0017420243       44.6076678683       42.5337039475  MEMB      74              0.0000000000
      9881        80  POPC      C33            22.7566111221       45.4628751297       31.6797032038  MEMB      74              0.0000000000
      9882        80  POPC      H3X            21.7422764842       45.8514894231       31.9239498856  MEMB      74              0.0000000000
      9883        80  POPC      H3Y            23.4846337197       46.2618413984       31.9471318372  MEMB      74              0.0000000000
      9884        80  POPC      C34            23.0421936281       44.2307153766       32.5397127022  MEMB      74              0.0000000000
      9885        80  POPC      H4X            24.0105539315       43.7773772757       32.2269579315  MEMB      74              0.0000000000
      9886        80  POPC      H4Y            22.2455086725       43.4771006409       32.3560875617  MEMB      74              0.0000000000
      9887        80  POPC      C35            23.0756807615       44.5413548651       34.0392516504  MEMB      74              0.0000000000
      9888        80  POPC      H5X            22.1590737257       44.1238714032       34.5160078190  MEMB      74              0.0000000000
      9889        80  POPC      H5Y            23.0454686510       45.6394833683       34.1895992241  MEMB      74              0.0000000000
      9890        80  POPC      C36            24.3237524127       43.9908326515       34.7385141431  MEMB      74              0.0000000000
      9891        80  POPC      H6X            25.2389761604       44.4262464206       34.2784743078  MEMB      74              0.0000000000
      9892        80  POPC      H6Y            24.3549659894       42.8891040527       34.5808011042  MEMB      74              0.0000000000
      9893        80  POPC      C37            24.3258939883       44.2899135984       36.2394498918  MEMB      74              0.0000000000
      9894        80  POPC      H7X            23.3481029451       43.9755695416       36.6650028670  MEMB      74              0.0000000000
      9895        80  POPC      H7Y            24.4064432536       45.3856279345       36.4040910603  MEMB      74              0.0000000000
      9896        80  POPC      C38            25.4660350411       43.5808722411       36.9782940510  MEMB      74              0.0000000000
      9897        80  POPC      H8X            26.4367045664       43.9809569137       36.6066231322  MEMB      74              0.0000000000
      9898        80  POPC      H8Y            25.4439197509       42.4914849020       36.7546702945  MEMB      74              0.0000000000
      9899        80  POPC      C39            25.3783080218       43.7890032041       38.4943660250  MEMB      74              0.0000000000
      9900        80  POPC      H9X            24.4423785474       43.3353436506       38.8866451241  MEMB      74              0.0000000000
      9901        80  POPC      H9Y            25.3277075365       44.8817636374       38.6876766636  MEMB      74              0.0000000000
      9902        80  POPC      C310           26.5863809672       43.2229082059       39.2470551978  MEMB      74              0.0000000000
      9903        80  POPC      H10X           27.5074864520       43.5925454758       38.7423214920  MEMB      74              0.0000000000
      9904        80  POPC      H10Y           26.5814689601       42.1129282202       39.1807480435  MEMB      74              0.0000000000
      9905        80  POPC      C311           26.6161447263       43.6612898321       40.7201535101  MEMB      74              0.0000000000
      9906        80  POPC      H11X           25.6587500001       43.3648606279       41.2051292266  MEMB      74              0.0000000000
      9907        80  POPC      H11Y           26.6747600636       44.7725325149       40.7642060550  MEMB      74              0.0000000000
      9908        80  POPC      C312           27.7895113707       43.0579253510       41.5110520261  MEMB      74              0.0000000000
      9909        80  POPC      H12X           27.6622510362       41.9514861294       41.5272005519  MEMB      74              0.0000000000
      9910        80  POPC      H12Y           27.7398398293       43.4077104934       42.5656158986  MEMB      74              0.0000000000
      9911        80  POPC      C313           29.1837382547       43.3735086544       40.9344205266  MEMB      74              0.0000000000
      9912        80  POPC      H13X           29.2475340197       42.9805714700       39.8958422406  MEMB      74              0.0000000000
      9913        80  POPC      H13Y           29.9465739027       42.8205971876       41.5244952270  MEMB      74              0.0000000000
      9914        80  POPC      C314           29.5664094211       44.8634875507       40.9359594903  MEMB      74              0.0000000000
      9915        80  POPC      H14X           28.8030223521       45.4567653380       40.3860949855  MEMB      74              0.0000000000
      9916        80  POPC      H14Y           30.5306493817       44.9766389658       40.3875500992  MEMB      74              0.0000000000
      9917        80  POPC      C315           29.7542789056       45.4386518551       42.3469750571  MEMB      74              0.0000000000
      9918        80  POPC      H15X           30.4673044056       44.7889511557       42.9050941855  MEMB      74              0.0000000000
      9919        80  POPC      H15Y           28.7830700296       45.4063404927       42.8898398841  MEMB      74              0.0000000000
      9920        80  POPC      C316           30.2885132892       46.8732448492       42.3464658405  MEMB      74              0.0000000000
      9921        80  POPC      H16X           30.4244957990       47.2421279681       43.3854629890  MEMB      74              0.0000000000
      9922        80  POPC      H16Y           29.5844115590       47.5524198499       41.8205849427  MEMB      74              0.0000000000
      9923        80  POPC      H16Z           31.2720586361       46.9191747217       41.8327572633  MEMB      74              0.0000000000
      9924        81  POPC      N              18.0644843753       31.2377732165       24.3290080131  MEMB      75              0.0000000000
      9925        81  POPC      C12            17.5262641181       31.9887187717       25.5399379876  MEMB      75              0.0000000000
      9926        81  POPC      H12A           16.7500491123       31.3914732027       26.0026804789  MEMB      75              0.0000000000
      9927        81  POPC      H12B           17.0606697158       32.9046767655       25.2153539401  MEMB      75              0.0000000000
      9928        81  POPC      C13            19.3188652430       31.9018970224       23.8185513672  MEMB      75              0.0000000000
      9929        81  POPC      H13A           20.1160390491       31.7559429395       24.5432948546  MEMB      75              0.0000000000
      9930        81  POPC      H13B           19.6406740643       31.4690464896       22.8694426693  MEMB      75              0.0000000000
      9931        81  POPC      H13C           19.1685113591       32.9662902482       23.6718445217  MEMB      75              0.0000000000
      9932        81  POPC      C14            18.4312433761       29.8563328918       24.7553050114  MEMB      75              0.0000000000
      9933        81  POPC      H14A           17.5692282592       29.2896714580       25.0829320748  MEMB      75              0.0000000000
      9934        81  POPC      H14B           18.9232551609       29.3132174023       23.9607565799  MEMB      75              0.0000000000
      9935        81  POPC      H14C           19.0901627849       29.9335747081       25.6236560648  MEMB      75              0.0000000000
      9936        81  POPC      C15            17.0971054875       31.1788543043       23.1826422674  MEMB      75              0.0000000000
      9937        81  POPC      H15A           16.8850221031       32.1729940531       22.7961158051  MEMB      75              0.0000000000
      9938        81  POPC      H15B           16.1739259997       30.6634757018       23.4119837175  MEMB      75              0.0000000000
      9939        81  POPC      H15C           17.5753400209       30.6064308397       22.3883571844  MEMB      75              0.0000000000
      9940        81  POPC      C11            18.5193682813       32.3572091567       26.6799026484  MEMB      75              0.0000000000
      9941        81  POPC      H11A           17.9268048619       32.9140371764       27.4497629529  MEMB      75              0.0000000000
      9942        81  POPC      H11B           19.3064544199       33.0489796418       26.3057986669  MEMB      75              0.0000000000
      9943        81  POPC      P              19.6437037764       31.1601970307       28.7298168110  MEMB      75              0.0000000000
      9944        81  POPC      O13            19.6065014539       32.5296314082       29.2946268874  MEMB      75              0.0000000000
      9945        81  POPC      O14            20.9471258492       30.4616458001       28.7098875375  MEMB      75              0.0000000000
      9946        81  POPC      O12            19.1270837017       31.1916493854       27.2279441689  MEMB      75              0.0000000000
      9947        81  POPC      O11            18.5474329389       30.2079019013       29.3741993684  MEMB      75              0.0000000000
      9948        81  POPC      C1             18.5154489905       28.8439839591       28.9102467660  MEMB      75              0.0000000000
      9949        81  POPC      HA             19.4973257285       28.3529645904       29.1087529158  MEMB      75              0.0000000000
      9950        81  POPC      HB             18.3406779098       28.7948713516       27.8113027916  MEMB      75              0.0000000000
      9951        81  POPC      C2             17.4147011494       27.9660745774       29.5976520184  MEMB      75              0.0000000000
      9952        81  POPC      HS             16.6524740154       27.7214550034       28.8220820201  MEMB      75              0.0000000000
      9953        81  POPC      O21            16.8157365672       28.6530159145       30.7168650865  MEMB      75              0.0000000000
      9954        81  POPC      C21            15.7720913679       29.4120747858       30.4325157009  MEMB      75              0.0000000000
      9955        81  POPC      O22            15.2163723644       29.5029871848       29.3508313036  MEMB      75              0.0000000000
      9956        81  POPC      C22            15.2284331190       30.0009095344       31.7299190087  MEMB      75              0.0000000000
      9957        81  POPC      H2R            15.1527470917       29.1721822263       32.4652594688  MEMB      75              0.0000000000
      9958        81  POPC      H2S            14.2095925601       30.3826563726       31.5218946989  MEMB      75              0.0000000000
      9959        81  POPC      C3             17.9805763105       26.5908539175       30.0816839209  MEMB      75              0.0000000000
      9960        81  POPC      HX             18.2887151537       26.0081633695       29.1835136519  MEMB      75              0.0000000000
      9961        81  POPC      HY             17.1692454972       26.0162181149       30.5828099620  MEMB      75              0.0000000000
      9962        81  POPC      O31            19.1357412584       26.7685911845       30.9199340570  MEMB      75              0.0000000000
      9963        81  POPC      C31            18.9304042770       26.8904360476       32.2093454441  MEMB      75              0.0000000000
      9964        81  POPC      O32            17.9387898532       26.5592174582       32.8356775946  MEMB      75              0.0000000000
      9965        81  POPC      C32            20.1099871725       27.6492566865       32.8110932103  MEMB      75              0.0000000000
      9966        81  POPC      H2X            21.0323768331       27.0729355901       32.5920043379  MEMB      75              0.0000000000
      9967        81  POPC      H2Y            19.9541469935       27.6868714927       33.9056895738  MEMB      75              0.0000000000
      9968        81  POPC      C23            16.1205802985       31.1207716173       32.2977575758  MEMB      75              0.0000000000
      9969        81  POPC      H3R            16.1465517648       31.9809448307       31.5898377272  MEMB      75              0.0000000000
      9970        81  POPC      H3S            17.1673139580       30.7515589284       32.4045872192  MEMB      75              0.0000000000
      9971        81  POPC      C24            15.6200121200       31.5908401273       33.6682725102  MEMB      75              0.0000000000
      9972        81  POPC      H4R            15.5700881092       30.7179307854       34.3589260204  MEMB      75              0.0000000000
      9973        81  POPC      H4S            14.5882759138       31.9942051662       33.5591411796  MEMB      75              0.0000000000
      9974        81  POPC      C25            16.5324751452       32.6640970254       34.2778024282  MEMB      75              0.0000000000
      9975        81  POPC      H5R            16.7512083482       33.4233165702       33.4902684727  MEMB      75              0.0000000000
      9976        81  POPC      H5S            17.5042153385       32.2031320389       34.5632328352  MEMB      75              0.0000000000
      9977        81  POPC      C26            15.9039807580       33.3776874354       35.4822379968  MEMB      75              0.0000000000
      9978        81  POPC      H6R            15.0084904071       33.9162595432       35.1122801391  MEMB      75              0.0000000000
      9979        81  POPC      H6S            16.6102248188       34.1435841707       35.8726158292  MEMB      75              0.0000000000
      9980        81  POPC      C27            15.4713923996       32.4571685519       36.6354245562  MEMB      75              0.0000000000
      9981        81  POPC      H7R            14.7080484982       31.7321488262       36.2744781555  MEMB      75              0.0000000000
      9982        81  POPC      H7S            14.9808596920       33.0848954202       37.4113230745  MEMB      75              0.0000000000
      9983        81  POPC      C28            16.6467231389       31.7000763652       37.2695731048  MEMB      75              0.0000000000
      9984        81  POPC      H8R            17.4509374962       32.4312738847       37.5035827957  MEMB      75              0.0000000000
      9985        81  POPC      H8S            17.0640241073       31.0011903730       36.5090803151  MEMB      75              0.0000000000
      9986        81  POPC      C29            16.2318473335       30.9844540199       38.5311732896  MEMB      75              0.0000000000
      9987        81  POPC      H91            16.0209476248       31.6390729340       39.3905933803  MEMB      75              0.0000000000
      9988        81  POPC      C210           16.0344429830       29.6618194274       38.6600032789  MEMB      75              0.0000000000
      9989        81  POPC      H101           15.7404376909       29.2584785763       39.6412004023  MEMB      75              0.0000000000
      9990        81  POPC      C211           16.1880527528       28.6471784364       37.5567601968  MEMB      75              0.0000000000
      9991        81  POPC      H11R           15.7068316517       29.0373274685       36.6295097407  MEMB      75              0.0000000000
      9992        81  POPC      H11S           15.6391824074       27.7132591703       37.8123483981  MEMB      75              0.0000000000
      9993        81  POPC      C212           17.6389278929       28.2678216384       37.2027893714  MEMB      75              0.0000000000
      9994        81  POPC      H12R           18.2520390400       29.1703768484       36.9901416253  MEMB      75              0.0000000000
      9995        81  POPC      H12S           17.5866546095       27.6811158785       36.2528586529  MEMB      75              0.0000000000
      9996        81  POPC      C213           18.3338756164       27.3887601315       38.2534119861  MEMB      75              0.0000000000
      9997        81  POPC      H13R           19.0234101258       26.7121084778       37.6996402461  MEMB      75              0.0000000000
      9998        81  POPC      H13S           17.5917878253       26.7478445760       38.7751954431  MEMB      75              0.0000000000
      9999        81  POPC      C214           19.2032754799       28.1620417197       39.2541738923  MEMB      75              0.0000000000
     10000        81  POPC      H14R           18.5719582799       28.7605467544       39.9457265929  MEMB      75              0.0000000000
     10001        81  POPC      H14S           19.8328179517       28.8780651972       38.6764009358  MEMB      75              0.0000000000
     10002        81  POPC      C215           20.1446156552       27.2387972749       40.0455627379  MEMB      75              0.0000000000
     10003        81  POPC      H15R           20.9601445641       27.8528830723       40.4885311055  MEMB      75              0.0000000000
     10004        81  POPC      H15S           20.6194581682       26.5137994660       39.3459086246  MEMB      75              0.0000000000
     10005        81  POPC      C216           19.4454522142       26.4676995157       41.1733367718  MEMB      75              0.0000000000
     10006        81  POPC      H16R           18.5763827448       25.9098381041       40.7583597650  MEMB      75              0.0000000000
     10007        81  POPC      H16S           19.0565614085       27.1918360600       41.9232012003  MEMB      75              0.0000000000
     10008        81  POPC      C217           20.3812561567       25.4689965453       41.8674913717  MEMB      75              0.0000000000
     10009        81  POPC      H17R           21.3204238548       25.9929554288       42.1593502784  MEMB      75              0.0000000000
     10010        81  POPC      H17S           20.6543765001       24.6774454059       41.1316219664  MEMB      75              0.0000000000
     10011        81  POPC      C218           19.7654599344       24.8160157239       43.1085627581  MEMB      75              0.0000000000
     10012        81  POPC      H18R           20.4355272985       24.0233162825       43.5070141893  MEMB      75              0.0000000000
     10013        81  POPC      H18S           18.7842153559       24.3575962326       42.8589521969  MEMB      75              0.0000000000
     10014        81  POPC      H18T           19.6033281158       25.5759721262       43.9032787775  MEMB      75              0.0000000000
     10015        81  POPC      C33            20.2142750804       29.0742097179       32.2206875718  MEMB      75              0.0000000000
     10016        81  POPC      H3X            19.2906149871       29.6582192548       32.4353338212  MEMB      75              0.0000000000
     10017        81  POPC      H3Y            20.3026552685       29.0000370703       31.1100416541  MEMB      75              0.0000000000
     10018        81  POPC      C34            21.4351639546       29.8658977492       32.6981313406  MEMB      75              0.0000000000
     10019        81  POPC      H4X            21.4406589992       30.8411778739       32.1554633800  MEMB      75              0.0000000000
     10020        81  POPC      H4Y            22.3537548664       29.3125237407       32.3970996989  MEMB      75              0.0000000000
     10021        81  POPC      C35            21.4685394507       30.1291503983       34.2070951474  MEMB      75              0.0000000000
     10022        81  POPC      H5X            21.5273289550       29.1572272127       34.7464561180  MEMB      75              0.0000000000
     10023        81  POPC      H5Y            20.5316503325       30.6428658699       34.5189117088  MEMB      75              0.0000000000
     10024        81  POPC      C36            22.6871967467       30.9789771838       34.5857596593  MEMB      75              0.0000000000
     10025        81  POPC      H6X            22.5665174450       32.0111097153       34.1891338752  MEMB      75              0.0000000000
     10026        81  POPC      H6Y            23.5641109293       30.5292719120       34.0714591918  MEMB      75              0.0000000000
     10027        81  POPC      C37            22.9788785696       31.0058659688       36.0921176387  MEMB      75              0.0000000000
     10028        81  POPC      H7X            24.0100911862       31.3939028082       36.2554803824  MEMB      75              0.0000000000
     10029        81  POPC      H7Y            22.9472249867       29.9652905700       36.4862805856  MEMB      75              0.0000000000
     10030        81  POPC      C38            22.0058421109       31.8900197272       36.8784285460  MEMB      75              0.0000000000
     10031        81  POPC      H8X            20.9612511270       31.6266653780       36.5953174307  MEMB      75              0.0000000000
     10032        81  POPC      H8Y            22.1799274918       32.9535884243       36.5964963947  MEMB      75              0.0000000000
     10033        81  POPC      C39            22.1619177033       31.7300942988       38.3980627916  MEMB      75              0.0000000000
     10034        81  POPC      H9X            23.2405451436       31.7922554878       38.6670736645  MEMB      75              0.0000000000
     10035        81  POPC      H9Y            21.7981932705       30.7180810816       38.6892405528  MEMB      75              0.0000000000
     10036        81  POPC      C310           21.3888628632       32.7872852172       39.2013497184  MEMB      75              0.0000000000
     10037        81  POPC      H10X           21.8452825144       33.7864523084       39.0192500965  MEMB      75              0.0000000000
     10038        81  POPC      H10Y           21.4979107608       32.5623540826       40.2847596763  MEMB      75              0.0000000000
     10039        81  POPC      C311           19.8991721007       32.8582330063       38.8380018094  MEMB      75              0.0000000000
     10040        81  POPC      H11X           19.4267419611       31.8560085283       38.9436510528  MEMB      75              0.0000000000
     10041        81  POPC      H11Y           19.8183590852       33.1499720308       37.7658298333  MEMB      75              0.0000000000
     10042        81  POPC      C312           19.1162400324       33.8963231223       39.6538416154  MEMB      75              0.0000000000
     10043        81  POPC      H12X           18.3689842965       34.3689017714       38.9730453114  MEMB      75              0.0000000000
     10044        81  POPC      H12Y           19.8047538022       34.6943017233       40.0047005916  MEMB      75              0.0000000000
     10045        81  POPC      C313           18.3326650706       33.3090218664       40.8338278595  MEMB      75              0.0000000000
     10046        81  POPC      H13X           17.6537250823       32.5240242213       40.4402869601  MEMB      75              0.0000000000
     10047        81  POPC      H13Y           17.6964929573       34.1127241156       41.2706785122  MEMB      75              0.0000000000
     10048        81  POPC      C314           19.2079764608       32.7144109324       41.9431398243  MEMB      75              0.0000000000
     10049        81  POPC      H14X           19.9175896609       33.4955260527       42.2960961711  MEMB      75              0.0000000000
     10050        81  POPC      H14Y           19.8047256339       31.8653444516       41.5394053614  MEMB      75              0.0000000000
     10051        81  POPC      C315           18.3868042198       32.2103805913       43.1343643582  MEMB      75              0.0000000000
     10052        81  POPC      H15X           17.7858308721       33.0581723593       43.5349328766  MEMB      75              0.0000000000
     10053        81  POPC      H15Y           19.0878863047       31.9038265976       43.9408107690  MEMB      75              0.0000000000
     10054        81  POPC      C316           17.4590339299       31.0393168553       42.8001564030  MEMB      75              0.0000000000
     10055        81  POPC      H16X           18.0297517158       30.1742245268       42.4017005613  MEMB      75              0.0000000000
     10056        81  POPC      H16Y           16.7068894688       31.3374724052       42.0395011123  MEMB      75              0.0000000000
     10057        81  POPC      H16Z           16.9164239239       30.7123781586       43.7102813171  MEMB      75              0.0000000000
     10058        82  POPS      N              46.8910834345       41.2763462718       25.2989592180  MEMB      76              0.0000000000
     10059        82  POPS      HN1            46.9174271525       42.0397612168       24.5782016821  MEMB      76              0.0000000000
     10060        82  POPS      HN2            46.1532840646       40.5659319387       25.0932803086  MEMB      76              0.0000000000
     10061        82  POPS      HN3            46.8178349684       41.6472322321       26.2722166118  MEMB      76              0.0000000000
     10062        82  POPS      C12            48.2218013612       40.6161582951       25.1149447623  MEMB      76              0.0000000000
     10063        82  POPS      H12A           48.7548019269       40.6762125093       26.0451572175  MEMB      76              0.0000000000
     10064        82  POPS      C13            49.0310497715       41.3856970709       24.0630487707  MEMB      76              0.0000000000
     10065        82  POPS      O13A           48.4949861426       42.3825696648       23.5036120606  MEMB      76              0.0000000000
     10066        82  POPS      O13B           50.2119909852       41.0407486497       23.8257853613  MEMB      76              0.0000000000
     10067        82  POPS      C11            48.0441093277       39.1163005021       24.7586599142  MEMB      76              0.0000000000
     10068        82  POPS      H11A           49.0019183357       38.5811932350       24.9726678542  MEMB      76              0.0000000000
     10069        82  POPS      H11B           47.8623865706       39.0057922271       23.6655454220  MEMB      76              0.0000000000
     10070        82  POPS      P              47.0998538869       37.9897402083       26.9397972493  MEMB      76              0.0000000000
     10071        82  POPS      O13            48.2899754382       37.1123561544       26.9988253417  MEMB      76              0.0000000000
     10072        82  POPS      O14            45.7843687568       37.3985922996       27.2530454598  MEMB      76              0.0000000000
     10073        82  POPS      O12            46.9455486113       38.5280621510       25.4628379515  MEMB      76              0.0000000000
     10074        82  POPS      O11            47.3050229347       39.3679681340       27.7231099762  MEMB      76              0.0000000000
     10075        82  POPS      C1             46.1959177503       39.8954997870       28.4686693096  MEMB      76              0.0000000000
     10076        82  POPS      HA             45.8973899981       39.1629254303       29.2571798841  MEMB      76              0.0000000000
     10077        82  POPS      HB             45.3191667642       40.0619176097       27.8025963954  MEMB      76              0.0000000000
     10078        82  POPS      C2             46.5199464517       41.2510671508       29.1783943125  MEMB      76              0.0000000000
     10079        82  POPS      HS             46.1898536309       42.0717519997       28.5116643522  MEMB      76              0.0000000000
     10080        82  POPS      O21            47.9085667927       41.3475605200       29.4358193508  MEMB      76              0.0000000000
     10081        82  POPS      C21            48.6922795070       41.9141564200       28.5753624458  MEMB      76              0.0000000000
     10082        82  POPS      O22            48.3455166509       42.5005576458       27.5555773966  MEMB      76              0.0000000000
     10083        82  POPS      C22            50.1275200841       41.7816431014       29.0976117464  MEMB      76              0.0000000000
     10084        82  POPS      H2R            50.6424741454       42.7439474238       28.9259033992  MEMB      76              0.0000000000
     10085        82  POPS      H2S            50.6193707107       40.9916099408       28.4906188841  MEMB      76              0.0000000000
     10086        82  POPS      C3             45.8081332439       41.4632910650       30.5397569521  MEMB      76              0.0000000000
     10087        82  POPS      HX             44.7557577054       41.7450147404       30.3414613034  MEMB      76              0.0000000000
     10088        82  POPS      HY             46.2777086051       42.3534415912       31.0139729481  MEMB      76              0.0000000000
     10089        82  POPS      O31            45.8910635956       40.2801712627       31.3640040034  MEMB      76              0.0000000000
     10090        82  POPS      C31            46.6659688946       40.3619709838       32.4456696290  MEMB      76              0.0000000000
     10091        82  POPS      O32            47.0574187292       41.3894936148       32.9668031820  MEMB      76              0.0000000000
     10092        82  POPS      C32            47.0294200311       38.9567572758       32.9196535604  MEMB      76              0.0000000000
     10093        82  POPS      H2X            48.1358353195       38.8756323162       32.8995621591  MEMB      76              0.0000000000
     10094        82  POPS      H2Y            46.6104937811       38.2233172293       32.1992124299  MEMB      76              0.0000000000
     10095        82  POPS      C23            50.1936364943       41.4214360653       30.6054420981  MEMB      76              0.0000000000
     10096        82  POPS      H3R            49.3799205357       40.7098790486       30.8858795743  MEMB      76              0.0000000000
     10097        82  POPS      H3S            50.0435158982       42.3204245103       31.2445739113  MEMB      76              0.0000000000
     10098        82  POPS      C24            51.4438236686       40.6500393193       31.0170553009  MEMB      76              0.0000000000
     10099        82  POPS      H4R            52.2924522604       41.3363468907       31.2241116708  MEMB      76              0.0000000000
     10100        82  POPS      H4S            51.7431572926       39.9843850476       30.1737271341  MEMB      76              0.0000000000
     10101        82  POPS      C25            51.1194005292       39.7485520649       32.2199947365  MEMB      76              0.0000000000
     10102        82  POPS      H5R            51.9992818406       39.1349693240       32.4509781426  MEMB      76              0.0000000000
     10103        82  POPS      H5S            50.3151294056       39.0372677216       31.9172651928  MEMB      76              0.0000000000
     10104        82  POPS      C26            50.6593203410       40.4856445100       33.4879149045  MEMB      76              0.0000000000
     10105        82  POPS      H6R            50.4839443455       39.7407335602       34.2952630981  MEMB      76              0.0000000000
     10106        82  POPS      H6S            49.6796973281       40.9704309529       33.2819479486  MEMB      76              0.0000000000
     10107        82  POPS      C27            51.6510093807       41.5423268838       34.0047233719  MEMB      76              0.0000000000
     10108        82  POPS      H7R            51.8165301962       42.3109421863       33.2181861643  MEMB      76              0.0000000000
     10109        82  POPS      H7S            52.6269623922       41.0466706371       34.1976886068  MEMB      76              0.0000000000
     10110        82  POPS      C28            51.1767116488       42.2419042865       35.2937435486  MEMB      76              0.0000000000
     10111        82  POPS      H8R            51.8994179292       43.0343438398       35.5737513282  MEMB      76              0.0000000000
     10112        82  POPS      H8S            51.1875906324       41.4915483776       36.1152754355  MEMB      76              0.0000000000
     10113        82  POPS      C29            49.8224985012       42.8722902352       35.1109861948  MEMB      76              0.0000000000
     10114        82  POPS      H91            49.6803620077       43.4279469779       34.1712561693  MEMB      76              0.0000000000
     10115        82  POPS      C210           48.7940783737       42.7688788631       35.9617305147  MEMB      76              0.0000000000
     10116        82  POPS      H101           47.8310417395       43.2171751050       35.6689921242  MEMB      76              0.0000000000
     10117        82  POPS      C211           48.8077723803       42.0023758597       37.2609728669  MEMB      76              0.0000000000
     10118        82  POPS      H11R           49.2677552670       40.9984173512       37.1178129265  MEMB      76              0.0000000000
     10119        82  POPS      H11S           47.7577355635       41.8272476317       37.5773401593  MEMB      76              0.0000000000
     10120        82  POPS      C212           49.5598061525       42.7125038168       38.4079338153  MEMB      76              0.0000000000
     10121        82  POPS      H12R           49.0407756485       43.6713841008       38.6317607974  MEMB      76              0.0000000000
     10122        82  POPS      H12S           50.5962845323       42.9609149917       38.0866292518  MEMB      76              0.0000000000
     10123        82  POPS      C213           49.6347812511       41.8858654493       39.7069412718  MEMB      76              0.0000000000
     10124        82  POPS      H13R           50.0706079076       42.5239541957       40.5077515434  MEMB      76              0.0000000000
     10125        82  POPS      H13S           50.3168203158       41.0187145167       39.5576297741  MEMB      76              0.0000000000
     10126        82  POPS      C214           48.2680405833       41.3581677467       40.1603949385  MEMB      76              0.0000000000
     10127        82  POPS      H14R           47.9480052608       40.5658994122       39.4466483473  MEMB      76              0.0000000000
     10128        82  POPS      H14S           47.5259850824       42.1822487619       40.1000310950  MEMB      76              0.0000000000
     10129        82  POPS      C215           48.2499736657       40.7545610198       41.5719202143  MEMB      76              0.0000000000
     10130        82  POPS      H15R           49.0980710216       40.0475838756       41.6984788135  MEMB      76              0.0000000000
     10131        82  POPS      H15S           47.3102290979       40.1626021307       41.6560231673  MEMB      76              0.0000000000
     10132        82  POPS      C216           48.2440476413       41.8013905820       42.6960130677  MEMB      76              0.0000000000
     10133        82  POPS      H16R           47.4679948766       42.5669795000       42.4657095537  MEMB      76              0.0000000000
     10134        82  POPS      H16S           49.2262277551       42.3211303375       42.7412514485  MEMB      76              0.0000000000
     10135        82  POPS      C217           47.9190762936       41.1817604525       44.0620461589  MEMB      76              0.0000000000
     10136        82  POPS      H17R           48.7414085997       40.4873082451       44.3460707789  MEMB      76              0.0000000000
     10137        82  POPS      H17S           46.9905611253       40.5754779022       43.9659220573  MEMB      76              0.0000000000
     10138        82  POPS      C218           47.6941792749       42.2107154848       45.1722039917  MEMB      76              0.0000000000
     10139        82  POPS      H18R           48.6133598388       42.8096533758       45.3415736167  MEMB      76              0.0000000000
     10140        82  POPS      H18S           47.4189923787       41.7029409664       46.1214168501  MEMB      76              0.0000000000
     10141        82  POPS      H18T           46.8647276914       42.8959392056       44.8957264864  MEMB      76              0.0000000000
     10142        82  POPS      C33            46.5096672927       38.6444319671       34.3405790878  MEMB      76              0.0000000000
     10143        82  POPS      H3X            46.6783331530       37.5596564691       34.5311115753  MEMB      76              0.0000000000
     10144        82  POPS      H3Y            45.4162969386       38.8335278013       34.3996419106  MEMB      76              0.0000000000
     10145        82  POPS      C34            47.2053551207       39.4436720248       35.4525901764  MEMB      76              0.0000000000
     10146        82  POPS      H4X            46.8591570273       40.5009293045       35.3933491572  MEMB      76              0.0000000000
     10147        82  POPS      H4Y            48.3071011942       39.4478700269       35.2980900348  MEMB      76              0.0000000000
     10148        82  POPS      C35            46.8951268526       38.8940087424       36.8520901751  MEMB      76              0.0000000000
     10149        82  POPS      H5X            45.8388180347       38.5462633822       36.8815007874  MEMB      76              0.0000000000
     10150        82  POPS      H5Y            46.9962835433       39.7070075556       37.6035656195  MEMB      76              0.0000000000
     10151        82  POPS      C36            47.8394587559       37.7515063896       37.2514052378  MEMB      76              0.0000000000
     10152        82  POPS      H6X            48.8348798622       38.1696027905       37.5218988493  MEMB      76              0.0000000000
     10153        82  POPS      H6Y            47.9860679711       37.0870209440       36.3692743959  MEMB      76              0.0000000000
     10154        82  POPS      C37            47.2950793078       36.8911889264       38.3968003220  MEMB      76              0.0000000000
     10155        82  POPS      H7X            47.9688151318       36.0165776882       38.5438490550  MEMB      76              0.0000000000
     10156        82  POPS      H7Y            46.3018019541       36.4922891541       38.0882550183  MEMB      76              0.0000000000
     10157        82  POPS      C38            47.1391685018       37.6156658493       39.7437740740  MEMB      76              0.0000000000
     10158        82  POPS      H8X            46.5584548708       38.5541975074       39.6153362767  MEMB      76              0.0000000000
     10159        82  POPS      H8Y            48.1416885506       37.8855080917       40.1433665686  MEMB      76              0.0000000000
     10160        82  POPS      C39            46.4094794241       36.7000341070       40.7327512882  MEMB      76              0.0000000000
     10161        82  POPS      H9X            46.9570603369       35.7295235624       40.7607053355  MEMB      76              0.0000000000
     10162        82  POPS      H9Y            45.4002577513       36.4996580490       40.3218268594  MEMB      76              0.0000000000
     10163        82  POPS      C310           46.2863100050       37.2049150560       42.1780964180  MEMB      76              0.0000000000
     10164        82  POPS      H10X           47.2931584183       37.5161922702       42.5375467391  MEMB      76              0.0000000000
     10165        82  POPS      H10Y           45.9688529690       36.3379242051       42.7964299141  MEMB      76              0.0000000000
     10166        82  POPS      C311           45.2809295145       38.3487686097       42.3958884179  MEMB      76              0.0000000000
     10167        82  POPS      H11X           44.9258360588       38.7298735078       41.4129769296  MEMB      76              0.0000000000
     10168        82  POPS      H11Y           45.8168257953       39.1862269365       42.8900470829  MEMB      76              0.0000000000
     10169        82  POPS      C312           44.0536885262       38.0211758837       43.2751554484  MEMB      76              0.0000000000
     10170        82  POPS      H12X           43.3476671789       37.3783252074       42.7117600667  MEMB      76              0.0000000000
     10171        82  POPS      H12Y           43.5236983875       38.9770706821       43.4737875833  MEMB      76              0.0000000000
     10172        82  POPS      C313           44.3207507388       37.3260582074       44.6230992927  MEMB      76              0.0000000000
     10173        82  POPS      H13X           44.6013577487       36.2683974985       44.4367622018  MEMB      76              0.0000000000
     10174        82  POPS      H13Y           43.3661219776       37.3073517559       45.1947292966  MEMB      76              0.0000000000
     10175        82  POPS      C314           45.4203223775       37.9614614649       45.4825961720  MEMB      76              0.0000000000
     10176        82  POPS      H14X           45.1418912912       39.0034878376       45.7505273891  MEMB      76              0.0000000000
     10177        82  POPS      H14Y           46.3615177136       38.0073390505       44.8897459275  MEMB      76              0.0000000000
     10178        82  POPS      C315           45.7093849765       37.1472336767       46.7528821753  MEMB      76              0.0000000000
     10179        82  POPS      H15X           46.6424221339       37.5500261872       47.2032680323  MEMB      76              0.0000000000
     10180        82  POPS      H15Y           45.9082414694       36.0907381490       46.4647073066  MEMB      76              0.0000000000
     10181        82  POPS      C316           44.6053336577       37.1884349383       47.8134276984  MEMB      76              0.0000000000
     10182        82  POPS      H16X           43.6245036716       36.8948275239       47.3846263122  MEMB      76              0.0000000000
     10183        82  POPS      H16Y           44.5198356660       38.2148545888       48.2287522957  MEMB      76              0.0000000000
     10184        82  POPS      H16Z           44.8436045625       36.4994695200       48.6519424855  MEMB      76              0.0000000000
     10185        83  POPC      N              45.8917107752       23.6428191054       25.6982969421  MEMB      77              0.0000000000
     10186        83  POPC      C12            45.8976038370       22.1582347887       26.0625434729  MEMB      77              0.0000000000
     10187        83  POPC      H12A           46.7270715771       21.9460205349       26.7227113270  MEMB      77              0.0000000000
     10188        83  POPC      H12B           46.0620400169       21.5877131181       25.1565557344  MEMB      77              0.0000000000
     10189        83  POPC      C13            47.1131434239       24.3364909525       26.1999535122  MEMB      77              0.0000000000
     10190        83  POPC      H13A           47.9976507366       24.0492657307       25.6331762456  MEMB      77              0.0000000000
     10191        83  POPC      H13B           47.0094465591       25.4103431820       26.1340088613  MEMB      77              0.0000000000
     10192        83  POPC      H13C           47.3137918339       24.0837968647       27.2329252191  MEMB      77              0.0000000000
     10193        83  POPC      C14            45.7990767083       23.7939624606       24.2156224636  MEMB      77              0.0000000000
     10194        83  POPC      H14A           45.7452312395       24.8404407616       23.9189605136  MEMB      77              0.0000000000
     10195        83  POPC      H14B           46.6464258087       23.3482686395       23.7032011843  MEMB      77              0.0000000000
     10196        83  POPC      H14C           44.8847125716       23.3258993756       23.8593658308  MEMB      77              0.0000000000
     10197        83  POPC      C15            44.6545412411       24.2797422320       26.2278309739  MEMB      77              0.0000000000
     10198        83  POPC      H15A           44.6936042576       24.3685249155       27.2999744888  MEMB      77              0.0000000000
     10199        83  POPC      H15B           43.8054227770       23.6173508983       26.0252573556  MEMB      77              0.0000000000
     10200        83  POPC      H15C           44.4309025960       25.2225413397       25.7478306752  MEMB      77              0.0000000000
     10201        83  POPC      C11            44.6255581334       21.5518010232       26.7114572687  MEMB      77              0.0000000000
     10202        83  POPC      H11A           44.4684353692       22.0535705436       27.6991659935  MEMB      77              0.0000000000
     10203        83  POPC      H11B           44.8315555153       20.4777151605       26.9236978762  MEMB      77              0.0000000000
     10204        83  POPC      P              42.0291529584       21.7265609461       26.5139604346  MEMB      77              0.0000000000
     10205        83  POPC      O13            41.0977893443       20.9865804582       25.6119192908  MEMB      77              0.0000000000
     10206        83  POPC      O14            41.8020802250       23.1557225248       26.8212330068  MEMB      77              0.0000000000
     10207        83  POPC      O12            43.4823114348       21.6373871420       25.8450164058  MEMB      77              0.0000000000
     10208        83  POPC      O11            42.3056337410       20.8814080086       27.8152434565  MEMB      77              0.0000000000
     10209        83  POPC      C1             42.3394871242       19.4404497202       27.8265522450  MEMB      77              0.0000000000
     10210        83  POPC      HA             43.2882917674       19.0478878879       27.4071200306  MEMB      77              0.0000000000
     10211        83  POPC      HB             41.5047444422       19.0170870496       27.2166476818  MEMB      77              0.0000000000
     10212        83  POPC      C2             42.1465675812       18.8605678388       29.2628268539  MEMB      77              0.0000000000
     10213        83  POPC      HS             41.6945684036       17.8473394814       29.1735147904  MEMB      77              0.0000000000
     10214        83  POPC      O21            41.2249350446       19.7374980531       29.8973889737  MEMB      77              0.0000000000
     10215        83  POPC      C21            40.8201793001       19.5778661938       31.1001532527  MEMB      77              0.0000000000
     10216        83  POPC      O22            40.8448679196       18.5781146749       31.7983669268  MEMB      77              0.0000000000
     10217        83  POPC      C22            40.3908324346       20.9576635606       31.5558639119  MEMB      77              0.0000000000
     10218        83  POPC      H2R            39.8140426077       20.8892532050       32.4963210941  MEMB      77              0.0000000000
     10219        83  POPC      H2S            39.7467808600       21.4009754944       30.7597928308  MEMB      77              0.0000000000
     10220        83  POPC      C3             43.4880344724       18.7145312767       30.0817124437  MEMB      77              0.0000000000
     10221        83  POPC      HX             44.1379351644       18.0501631076       29.4672384966  MEMB      77              0.0000000000
     10222        83  POPC      HY             43.2548408528       18.1664147475       31.0243674576  MEMB      77              0.0000000000
     10223        83  POPC      O31            44.1905726651       19.9523068112       30.3596471515  MEMB      77              0.0000000000
     10224        83  POPC      C31            45.4090364918       19.7567238123       30.8848689630  MEMB      77              0.0000000000
     10225        83  POPC      O32            45.8935787260       18.6722615911       31.1481982913  MEMB      77              0.0000000000
     10226        83  POPC      C32            46.1654674028       21.0796699120       30.9660665501  MEMB      77              0.0000000000
     10227        83  POPC      H2X            46.1170713667       21.5483746498       29.9606956296  MEMB      77              0.0000000000
     10228        83  POPC      H2Y            47.2253827798       20.8365579144       31.1858197957  MEMB      77              0.0000000000
     10229        83  POPC      C23            41.6603214953       21.8144796489       31.7415285480  MEMB      77              0.0000000000
     10230        83  POPC      H3R            42.3849165960       21.6617334436       30.9048058502  MEMB      77              0.0000000000
     10231        83  POPC      H3S            42.1702543117       21.5239585938       32.6874866286  MEMB      77              0.0000000000
     10232        83  POPC      C24            41.3110809391       23.2899233885       31.7514073090  MEMB      77              0.0000000000
     10233        83  POPC      H4R            40.2260824984       23.3850459982       31.9596861274  MEMB      77              0.0000000000
     10234        83  POPC      H4S            41.4881309737       23.7366997967       30.7461973739  MEMB      77              0.0000000000
     10235        83  POPC      C25            42.0217133115       24.0851145142       32.8339415596  MEMB      77              0.0000000000
     10236        83  POPC      H5R            43.1193147558       24.0200538952       32.6785146635  MEMB      77              0.0000000000
     10237        83  POPC      H5S            41.7966637455       23.6522400505       33.8319682816  MEMB      77              0.0000000000
     10238        83  POPC      C26            41.5594269386       25.5431789410       32.7738467399  MEMB      77              0.0000000000
     10239        83  POPC      H6R            40.4530100911       25.5815918687       32.6596951460  MEMB      77              0.0000000000
     10240        83  POPC      H6S            42.0194165660       25.9889247234       31.8647168696  MEMB      77              0.0000000000
     10241        83  POPC      C27            41.9336551590       26.3605271180       34.0061510907  MEMB      77              0.0000000000
     10242        83  POPC      H7R            41.4573370050       25.9003044192       34.8946850606  MEMB      77              0.0000000000
     10243        83  POPC      H7S            41.5115964647       27.3845640936       33.9062616878  MEMB      77              0.0000000000
     10244        83  POPC      C28            43.4494674786       26.4273118683       34.1749207272  MEMB      77              0.0000000000
     10245        83  POPC      H8R            43.8660979156       26.9249030461       33.2714878204  MEMB      77              0.0000000000
     10246        83  POPC      H8S            43.8682717976       25.3977704747       34.1982314891  MEMB      77              0.0000000000
     10247        83  POPC      C29            43.8583822471       27.2023923952       35.3820247570  MEMB      77              0.0000000000
     10248        83  POPC      H91            43.6847823567       28.2774623338       35.2977551849  MEMB      77              0.0000000000
     10249        83  POPC      C210           44.3744371933       26.7172804262       36.5130722404  MEMB      77              0.0000000000
     10250        83  POPC      H101           44.6457212446       27.4359030162       37.2966747802  MEMB      77              0.0000000000
     10251        83  POPC      C211           44.6590240144       25.2746384458       36.8361888471  MEMB      77              0.0000000000
     10252        83  POPC      H11R           45.5840413333       24.9210473707       36.3298681059  MEMB      77              0.0000000000
     10253        83  POPC      H11S           43.8204896170       24.6103390969       36.5229152025  MEMB      77              0.0000000000
     10254        83  POPC      C212           44.8405142291       25.1899891075       38.3572290868  MEMB      77              0.0000000000
     10255        83  POPC      H12R           43.9392334473       25.6179104024       38.8558614528  MEMB      77              0.0000000000
     10256        83  POPC      H12S           45.7253402047       25.7950335560       38.6618148692  MEMB      77              0.0000000000
     10257        83  POPC      C213           45.0018599385       23.7711494567       38.9039510453  MEMB      77              0.0000000000
     10258        83  POPC      H13R           44.2581515807       23.1014233213       38.4279471393  MEMB      77              0.0000000000
     10259        83  POPC      H13S           44.7497182093       23.8078461272       39.9876806649  MEMB      77              0.0000000000
     10260        83  POPC      C214           46.4269694946       23.2259498956       38.7432970791  MEMB      77              0.0000000000
     10261        83  POPC      H14R           47.1450354703       24.0139216475       39.0583232892  MEMB      77              0.0000000000
     10262        83  POPC      H14S           46.6130219374       23.0024148008       37.6690849739  MEMB      77              0.0000000000
     10263        83  POPC      C215           46.6839690385       21.9729633705       39.5925351126  MEMB      77              0.0000000000
     10264        83  POPC      H15R           47.5960895980       21.4471907142       39.2299492253  MEMB      77              0.0000000000
     10265        83  POPC      H15S           45.8234210111       21.2790105190       39.4717036803  MEMB      77              0.0000000000
     10266        83  POPC      C216           46.8660450190       22.3039556754       41.0794064703  MEMB      77              0.0000000000
     10267        83  POPC      H16R           46.1571439108       23.1082930460       41.3776603064  MEMB      77              0.0000000000
     10268        83  POPC      H16S           47.8921635523       22.7003559071       41.2511076164  MEMB      77              0.0000000000
     10269        83  POPC      C217           46.6092172768       21.1099437971       41.9997640775  MEMB      77              0.0000000000
     10270        83  POPC      H17R           47.3564487469       20.3115008475       41.7896572243  MEMB      77              0.0000000000
     10271        83  POPC      H17S           45.5966180908       20.6957733159       41.7818313782  MEMB      77              0.0000000000
     10272        83  POPC      C218           46.6766045975       21.5184176323       43.4693443846  MEMB      77              0.0000000000
     10273        83  POPC      H18R           46.4110717519       20.6661606331       44.1296782253  MEMB      77              0.0000000000
     10274        83  POPC      H18S           45.9652395002       22.3473162948       43.6719040196  MEMB      77              0.0000000000
     10275        83  POPC      H18T           47.6962033792       21.8796825225       43.7270252535  MEMB      77              0.0000000000
     10276        83  POPC      C33            45.6157239354       22.0651690124       32.0214739050  MEMB      77              0.0000000000
     10277        83  POPC      H3X            44.6198400108       21.7599233413       32.4065143616  MEMB      77              0.0000000000
     10278        83  POPC      H3Y            45.4637525544       23.0419560067       31.5055801063  MEMB      77              0.0000000000
     10279        83  POPC      C34            46.6022409714       22.2922451248       33.1769915089  MEMB      77              0.0000000000
     10280        83  POPC      H4X            46.3162846680       23.2208043466       33.7220896094  MEMB      77              0.0000000000
     10281        83  POPC      H4Y            47.6084380746       22.4560021574       32.7307945887  MEMB      77              0.0000000000
     10282        83  POPC      C35            46.6875165830       21.1407332418       34.1885619911  MEMB      77              0.0000000000
     10283        83  POPC      H5X            47.5788745354       21.3014785121       34.8377391849  MEMB      77              0.0000000000
     10284        83  POPC      H5Y            46.8335720674       20.1727077519       33.6589475463  MEMB      77              0.0000000000
     10285        83  POPC      C36            45.4525808746       21.0701327925       35.0950139283  MEMB      77              0.0000000000
     10286        83  POPC      H6X            44.5543136562       20.8466682714       34.4788716496  MEMB      77              0.0000000000
     10287        83  POPC      H6Y            45.2987126554       22.0708516266       35.5619313549  MEMB      77              0.0000000000
     10288        83  POPC      C37            45.5874196787       20.0262603512       36.2083060713  MEMB      77              0.0000000000
     10289        83  POPC      H7X            46.5604769020       20.1827469852       36.7284627510  MEMB      77              0.0000000000
     10290        83  POPC      H7Y            45.6005025563       19.0067899636       35.7637052979  MEMB      77              0.0000000000
     10291        83  POPC      C38            44.4645440488       20.1317891836       37.2513428266  MEMB      77              0.0000000000
     10292        83  POPC      H8X            44.4943071297       21.1584652552       37.6703116995  MEMB      77              0.0000000000
     10293        83  POPC      H8Y            44.6655800351       19.4353835052       38.0918829263  MEMB      77              0.0000000000
     10294        83  POPC      C39            43.0617803885       19.8679281993       36.6867871173  MEMB      77              0.0000000000
     10295        83  POPC      H9X            43.0611083759       18.9092763762       36.1217764192  MEMB      77              0.0000000000
     10296        83  POPC      H9Y            42.8151962922       20.6845516026       35.9703161973  MEMB      77              0.0000000000
     10297        83  POPC      C310           41.9550572453       19.8243764868       37.7528194737  MEMB      77              0.0000000000
     10298        83  POPC      H10X           41.9952874245       18.8531804638       38.2960233631  MEMB      77              0.0000000000
     10299        83  POPC      H10Y           40.9726607460       19.8808167241       37.2301209983  MEMB      77              0.0000000000
     10300        83  POPC      C311           42.0597775201       20.9668979659       38.7714642303  MEMB      77              0.0000000000
     10301        83  POPC      H11X           42.3491091734       21.8994758701       38.2361890399  MEMB      77              0.0000000000
     10302        83  POPC      H11Y           42.8719813278       20.7408029761       39.4977673636  MEMB      77              0.0000000000
     10303        83  POPC      C312           40.7499253574       21.2362072461       39.5214231715  MEMB      77              0.0000000000
     10304        83  POPC      H12X           40.4141861635       20.3202012176       40.0521149186  MEMB      77              0.0000000000
     10305        83  POPC      H12Y           39.9669063107       21.4896564941       38.7701634849  MEMB      77              0.0000000000
     10306        83  POPC      C313           40.8726481819       22.4156400854       40.4982447713  MEMB      77              0.0000000000
     10307        83  POPC      H13X           39.8515279089       22.7495675057       40.7885114594  MEMB      77              0.0000000000
     10308        83  POPC      H13Y           41.3648062515       23.2648666776       39.9721253069  MEMB      77              0.0000000000
     10309        83  POPC      C314           41.6489938210       22.0936883305       41.7841869329  MEMB      77              0.0000000000
     10310        83  POPC      H14X           41.7086732644       23.0293627298       42.3866363157  MEMB      77              0.0000000000
     10311        83  POPC      H14Y           42.6929979250       21.7917734415       41.5489676160  MEMB      77              0.0000000000
     10312        83  POPC      C315           40.9680407508       21.0072150582       42.6256076493  MEMB      77              0.0000000000
     10313        83  POPC      H15X           41.4790300838       20.0312440640       42.4623937475  MEMB      77              0.0000000000
     10314        83  POPC      H15Y           39.9213609513       20.8842309579       42.2712691507  MEMB      77              0.0000000000
     10315        83  POPC      C316           40.9153160636       21.3360067393       44.1158541696  MEMB      77              0.0000000000
     10316        83  POPC      H16X           40.2384546072       20.6300974219       44.6410547503  MEMB      77              0.0000000000
     10317        83  POPC      H16Y           40.5394466988       22.3678525940       44.2826109151  MEMB      77              0.0000000000
     10318        83  POPC      H16Z           41.9274990121       21.2478291173       44.5603687870  MEMB      77              0.0000000000
     10319        84  POPS      N              32.5512475148       47.6431890908       26.2284203949  MEMB      78              0.0000000000
     10320        84  POPS      HN1            31.5975324937       47.2334873582       26.1896994590  MEMB      78              0.0000000000
     10321        84  POPS      HN2            33.1215270597       47.2713245481       25.4373045043  MEMB      78              0.0000000000
     10322        84  POPS      HN3            33.0454287092       47.5023991803       27.1488327397  MEMB      78              0.0000000000
     10323        84  POPS      C12            32.4463133646       49.1070404055       25.9431232786  MEMB      78              0.0000000000
     10324        84  POPS      H12A           32.2207735752       49.6168596235       26.8691538272  MEMB      78              0.0000000000
     10325        84  POPS      C13            31.3295267318       49.4603656981       24.9349748185  MEMB      78              0.0000000000
     10326        84  POPS      O13A           30.5278546230       48.5690039742       24.5334856930  MEMB      78              0.0000000000
     10327        84  POPS      O13B           31.2664146675       50.6579664294       24.5495251225  MEMB      78              0.0000000000
     10328        84  POPS      C11            33.8083351649       49.6158138947       25.3920861882  MEMB      78              0.0000000000
     10329        84  POPS      H11A           33.7951356582       50.7332036731       25.4162744239  MEMB      78              0.0000000000
     10330        84  POPS      H11B           33.8933577632       49.3358910221       24.3209657684  MEMB      78              0.0000000000
     10331        84  POPS      P              35.7718520237       49.8852527766       27.1111062933  MEMB      78              0.0000000000
     10332        84  POPS      O13            35.0726094885       51.1291249793       27.4951852960  MEMB      78              0.0000000000
     10333        84  POPS      O14            37.1445802675       50.0159120695       26.5795500944  MEMB      78              0.0000000000
     10334        84  POPS      O12            34.9155185710       49.0394373735       26.0932050576  MEMB      78              0.0000000000
     10335        84  POPS      O11            35.7886427667       48.8893832427       28.3366925772  MEMB      78              0.0000000000
     10336        84  POPS      C1             36.1653500854       47.5306808209       28.0404441611  MEMB      78              0.0000000000
     10337        84  POPS      HA             37.1298475980       47.4840155886       27.4841938511  MEMB      78              0.0000000000
     10338        84  POPS      HB             35.3897061388       47.0217717589       27.4201282443  MEMB      78              0.0000000000
     10339        84  POPS      C2             36.3365842155       46.6846120318       29.3301376556  MEMB      78              0.0000000000
     10340        84  POPS      HS             36.2666187258       45.6071636351       29.0533621035  MEMB      78              0.0000000000
     10341        84  POPS      O21            35.3568385154       46.9566705676       30.3355198814  MEMB      78              0.0000000000
     10342        84  POPS      C21            34.1013658119       47.2137918150       30.0738677691  MEMB      78              0.0000000000
     10343        84  POPS      O22            33.5073825589       47.1650464234       29.0073070177  MEMB      78              0.0000000000
     10344        84  POPS      C22            33.4402875288       47.5568845678       31.4109900718  MEMB      78              0.0000000000
     10345        84  POPS      H2R            33.9533751262       46.9660100914       32.2001870606  MEMB      78              0.0000000000
     10346        84  POPS      H2S            32.3798286610       47.2452747107       31.3732963842  MEMB      78              0.0000000000
     10347        84  POPS      C3             37.7555560970       46.9003338109       29.9490886781  MEMB      78              0.0000000000
     10348        84  POPS      HX             38.4774090457       46.3145790161       29.3333343986  MEMB      78              0.0000000000
     10349        84  POPS      HY             37.7829715982       46.4550980020       30.9718438265  MEMB      78              0.0000000000
     10350        84  POPS      O31            38.1644240098       48.2909317770       29.9283633209  MEMB      78              0.0000000000
     10351        84  POPS      C31            37.8126989804       49.0187030121       30.9839800388  MEMB      78              0.0000000000
     10352        84  POPS      O32            37.3267060969       48.5868770355       32.0107960843  MEMB      78              0.0000000000
     10353        84  POPS      C32            38.2134353839       50.4792902854       30.7284839422  MEMB      78              0.0000000000
     10354        84  POPS      H2X            37.2820778853       51.0373305730       30.5048860276  MEMB      78              0.0000000000
     10355        84  POPS      H2Y            38.8454523127       50.4923474985       29.8203483316  MEMB      78              0.0000000000
     10356        84  POPS      C23            33.5604343069       49.0625119369       31.7319778087  MEMB      78              0.0000000000
     10357        84  POPS      H3R            32.7964893681       49.6283573535       31.1540922145  MEMB      78              0.0000000000
     10358        84  POPS      H3S            34.5645307185       49.4348800094       31.4126626020  MEMB      78              0.0000000000
     10359        84  POPS      C24            33.4243701733       49.3719498622       33.2297459126  MEMB      78              0.0000000000
     10360        84  POPS      H4R            34.2759818544       48.8875340084       33.7627793480  MEMB      78              0.0000000000
     10361        84  POPS      H4S            32.4796920808       48.9348335451       33.6195728820  MEMB      78              0.0000000000
     10362        84  POPS      C25            33.4554147233       50.8833683135       33.5111616418  MEMB      78              0.0000000000
     10363        84  POPS      H5R            32.5294287731       51.3465189890       33.1065621118  MEMB      78              0.0000000000
     10364        84  POPS      H5S            34.3191024343       51.3176494180       32.9553401163  MEMB      78              0.0000000000
     10365        84  POPS      C26            33.6004416444       51.2366667675       35.0017046830  MEMB      78              0.0000000000
     10366        84  POPS      H6R            33.6385965233       52.3428597244       35.1170685484  MEMB      78              0.0000000000
     10367        84  POPS      H6S            34.5708235086       50.8274555299       35.3615665113  MEMB      78              0.0000000000
     10368        84  POPS      C27            32.4823653155       50.6817096499       35.8970642486  MEMB      78              0.0000000000
     10369        84  POPS      H7R            32.4465488407       49.5768199772       35.7766739515  MEMB      78              0.0000000000
     10370        84  POPS      H7S            31.5073000777       51.0792467206       35.5520039126  MEMB      78              0.0000000000
     10371        84  POPS      C28            32.7072081626       51.0228773278       37.3845059369  MEMB      78              0.0000000000
     10372        84  POPS      H8R            32.6675731789       52.1275561496       37.5118852286  MEMB      78              0.0000000000
     10373        84  POPS      H8S            33.7481433951       50.7191321862       37.6406676617  MEMB      78              0.0000000000
     10374        84  POPS      C29            31.7309480960       50.3543921865       38.3227769336  MEMB      78              0.0000000000
     10375        84  POPS      H91            30.8979626325       50.9828334695       38.6762737694  MEMB      78              0.0000000000
     10376        84  POPS      C210           31.8132077018       49.0766521901       38.7396366533  MEMB      78              0.0000000000
     10377        84  POPS      H101           31.0617482180       48.6865485252       39.4441217931  MEMB      78              0.0000000000
     10378        84  POPS      C211           32.8869348165       48.0944278941       38.3403180996  MEMB      78              0.0000000000
     10379        84  POPS      H11R           33.2667219996       48.3147716950       37.3169012721  MEMB      78              0.0000000000
     10380        84  POPS      H11S           32.4586779445       47.0692084549       38.2973063691  MEMB      78              0.0000000000
     10381        84  POPS      C212           34.1089149047       48.0835852373       39.2801425144  MEMB      78              0.0000000000
     10382        84  POPS      H12R           34.5081750634       49.1132962645       39.3954546227  MEMB      78              0.0000000000
     10383        84  POPS      H12S           34.9107407635       47.4760250498       38.8041518619  MEMB      78              0.0000000000
     10384        84  POPS      C213           33.8082097593       47.4817687875       40.6579108072  MEMB      78              0.0000000000
     10385        84  POPS      H13R           33.2962302031       46.5052786101       40.5098230618  MEMB      78              0.0000000000
     10386        84  POPS      H13S           33.1116886788       48.1564345788       41.2049110234  MEMB      78              0.0000000000
     10387        84  POPS      C214           35.0710303706       47.2703140119       41.5060009919  MEMB      78              0.0000000000
     10388        84  POPS      H14R           35.5742509083       48.2572089591       41.6276775603  MEMB      78              0.0000000000
     10389        84  POPS      H14S           35.7724886594       46.5888316225       40.9755196292  MEMB      78              0.0000000000
     10390        84  POPS      C215           34.7684832931       46.7032890009       42.9016556836  MEMB      78              0.0000000000
     10391        84  POPS      H15R           33.9911887034       47.3425014239       43.3739893297  MEMB      78              0.0000000000
     10392        84  POPS      H15S           35.6900083480       46.7738531026       43.5219926158  MEMB      78              0.0000000000
     10393        84  POPS      C216           34.2791083054       45.2459847360       42.8881614885  MEMB      78              0.0000000000
     10394        84  POPS      H16R           35.0972003435       44.5965330619       42.5059105349  MEMB      78              0.0000000000
     10395        84  POPS      H16S           33.4195680233       45.1487800440       42.1883970815  MEMB      78              0.0000000000
     10396        84  POPS      C217           33.8272235604       44.7303244550       44.2646457159  MEMB      78              0.0000000000
     10397        84  POPS      H17R           33.4409974299       43.6926512564       44.1376814035  MEMB      78              0.0000000000
     10398        84  POPS      H17S           32.9764419768       45.3571632645       44.6164116499  MEMB      78              0.0000000000
     10399        84  POPS      C218           34.9281128446       44.7205293427       45.3289631206  MEMB      78              0.0000000000
     10400        84  POPS      H18R           35.2808170824       45.7533425870       45.5323277376  MEMB      78              0.0000000000
     10401        84  POPS      H18S           35.7973707785       44.1210427251       44.9840049064  MEMB      78              0.0000000000
     10402        84  POPS      H18T           34.5525747828       44.2862898182       46.2800569301  MEMB      78              0.0000000000
     10403        84  POPS      C33            39.0076893977       51.1525686946       31.8818563740  MEMB      78              0.0000000000
     10404        84  POPS      H3X            39.8206091911       51.7560523787       31.4158614837  MEMB      78              0.0000000000
     10405        84  POPS      H3Y            39.5097383378       50.4042235390       32.5320116504  MEMB      78              0.0000000000
     10406        84  POPS      C34            38.1653977493       52.1310744193       32.7174622001  MEMB      78              0.0000000000
     10407        84  POPS      H4X            37.5092468476       52.7203291125       32.0401774193  MEMB      78              0.0000000000
     10408        84  POPS      H4Y            38.8455265290       52.8521908277       33.2271602156  MEMB      78              0.0000000000
     10409        84  POPS      C35            37.3121230920       51.4758060773       33.8125364412  MEMB      78              0.0000000000
     10410        84  POPS      H5X            36.6480319135       50.6926678203       33.3838771693  MEMB      78              0.0000000000
     10411        84  POPS      H5Y            36.6571880024       52.2676550812       34.2408411389  MEMB      78              0.0000000000
     10412        84  POPS      C36            38.1743561716       50.8772614520       34.9340988416  MEMB      78              0.0000000000
     10413        84  POPS      H6X            39.0316392557       51.5593207716       35.1368744474  MEMB      78              0.0000000000
     10414        84  POPS      H6Y            38.5905414706       49.9031354674       34.5888381871  MEMB      78              0.0000000000
     10415        84  POPS      C37            37.4293586572       50.6659623804       36.2590613788  MEMB      78              0.0000000000
     10416        84  POPS      H7X            38.1368078600       50.1717582914       36.9632530054  MEMB      78              0.0000000000
     10417        84  POPS      H7Y            36.5725120545       49.9719540008       36.1109637146  MEMB      78              0.0000000000
     10418        84  POPS      C38            36.9374277840       51.9735531489       36.9021418745  MEMB      78              0.0000000000
     10419        84  POPS      H8X            36.0339520325       52.3306200906       36.3608939289  MEMB      78              0.0000000000
     10420        84  POPS      H8Y            37.7153068306       52.7604817165       36.8020491829  MEMB      78              0.0000000000
     10421        84  POPS      C39            36.6001514007       51.7873329647       38.3848622365  MEMB      78              0.0000000000
     10422        84  POPS      H9X            37.5234395739       51.5285240809       38.9485594034  MEMB      78              0.0000000000
     10423        84  POPS      H9Y            35.9078609399       50.9190808867       38.4580993217  MEMB      78              0.0000000000
     10424        84  POPS      C310           35.9423991285       53.0245758314       39.0140577526  MEMB      78              0.0000000000
     10425        84  POPS      H10X           35.0025895478       53.2414046751       38.4550027116  MEMB      78              0.0000000000
     10426        84  POPS      H10Y           36.6137843916       53.9052763498       38.8989757199  MEMB      78              0.0000000000
     10427        84  POPS      C311           35.5908294111       52.8442815868       40.5012785423  MEMB      78              0.0000000000
     10428        84  POPS      H11X           34.9566920862       53.6995877285       40.8178472483  MEMB      78              0.0000000000
     10429        84  POPS      H11Y           36.5182332214       52.8743593041       41.1146794782  MEMB      78              0.0000000000
     10430        84  POPS      C312           34.8527558481       51.5256772787       40.7775310505  MEMB      78              0.0000000000
     10431        84  POPS      H12X           35.5928223989       50.6945387194       40.7336100162  MEMB      78              0.0000000000
     10432        84  POPS      H12Y           34.1046010325       51.3530619750       39.9719320404  MEMB      78              0.0000000000
     10433        84  POPS      C313           34.1224071269       51.4607855495       42.1248623449  MEMB      78              0.0000000000
     10434        84  POPS      H13X           34.7955705166       51.7988346800       42.9410147770  MEMB      78              0.0000000000
     10435        84  POPS      H13Y           33.8672986037       50.3916584633       42.3150507988  MEMB      78              0.0000000000
     10436        84  POPS      C314           32.8156993227       52.2689235934       42.1391263797  MEMB      78              0.0000000000
     10437        84  POPS      H14X           32.2792569198       52.1026086700       41.1776758520  MEMB      78              0.0000000000
     10438        84  POPS      H14Y           33.0599483892       53.3520784967       42.2049665870  MEMB      78              0.0000000000
     10439        84  POPS      C315           31.8761932392       51.8781369227       43.2887611522  MEMB      78              0.0000000000
     10440        84  POPS      H15X           31.5238638233       50.8332382875       43.1216195857  MEMB      78              0.0000000000
     10441        84  POPS      H15Y           30.9827064929       52.5426983162       43.2625439494  MEMB      78              0.0000000000
     10442        84  POPS      C316           32.5261560864       51.9647954323       44.6694741517  MEMB      78              0.0000000000
     10443        84  POPS      H16X           32.9231932388       52.9875113423       44.8434910501  MEMB      78              0.0000000000
     10444        84  POPS      H16Y           33.3719231022       51.2511502338       44.7582557438  MEMB      78              0.0000000000
     10445        84  POPS      H16Z           31.7895849911       51.7272656882       45.4664584534  MEMB      78              0.0000000000
     10446        85  POPS      N              22.8886264365       22.7675591847       26.3898979794  MEMB      79              0.0000000000
     10447        85  POPS      HN1            22.6310148449       23.7698015109       26.2444690673  MEMB      79              0.0000000000
     10448        85  POPS      HN2            23.6228493724       22.6062703239       27.1033888090  MEMB      79              0.0000000000
     10449        85  POPS      HN3            23.1823984193       22.3325842669       25.4823584920  MEMB      79              0.0000000000
     10450        85  POPS      C12            21.6993644090       21.9728550554       26.7915327585  MEMB      79              0.0000000000
     10451        85  POPS      H12A           21.2521176272       22.4278767492       27.6648981872  MEMB      79              0.0000000000
     10452        85  POPS      C13            22.0939350220       20.5292689990       27.1751668488  MEMB      79              0.0000000000
     10453        85  POPS      O13A           23.2659537675       20.1156779248       26.9243718091  MEMB      79              0.0000000000
     10454        85  POPS      O13B           21.2105434992       19.8411184002       27.7433637117  MEMB      79              0.0000000000
     10455        85  POPS      C11            20.7182183709       21.9755075188       25.5740375344  MEMB      79              0.0000000000
     10456        85  POPS      H11A           20.5911187506       20.9239943342       25.2296274717  MEMB      79              0.0000000000
     10457        85  POPS      H11B           21.1327655559       22.5188499740       24.6954662627  MEMB      79              0.0000000000
     10458        85  POPS      P              19.1812101218       23.9800779232       26.3340769569  MEMB      79              0.0000000000
     10459        85  POPS      O13            17.9619208972       24.4373567923       25.6244514119  MEMB      79              0.0000000000
     10460        85  POPS      O14            20.4480153278       24.7294231135       26.1262858429  MEMB      79              0.0000000000
     10461        85  POPS      O12            19.4341481115       22.4998230868       25.8794906324  MEMB      79              0.0000000000
     10462        85  POPS      O11            18.8868957937       23.7921128245       27.8788889046  MEMB      79              0.0000000000
     10463        85  POPS      C1             18.3022995132       22.5789314523       28.3727684523  MEMB      79              0.0000000000
     10464        85  POPS      HA             18.7770299728       21.6631987439       27.9409168473  MEMB      79              0.0000000000
     10465        85  POPS      HB             17.2213936242       22.5579323618       28.1061538330  MEMB      79              0.0000000000
     10466        85  POPS      C2             18.4349416000       22.4162013463       29.9188252545  MEMB      79              0.0000000000
     10467        85  POPS      HS             18.1838609998       23.3800680437       30.4205640338  MEMB      79              0.0000000000
     10468        85  POPS      O21            19.7519535088       21.9698400824       30.2741164196  MEMB      79              0.0000000000
     10469        85  POPS      C21            20.6976641719       22.8729228730       30.3654730372  MEMB      79              0.0000000000
     10470        85  POPS      O22            20.6135669629       24.0633727503       30.1409011330  MEMB      79              0.0000000000
     10471        85  POPS      C22            21.9651688038       22.1742345410       30.8757005088  MEMB      79              0.0000000000
     10472        85  POPS      H2R            22.2711275000       21.4446808558       30.0972732209  MEMB      79              0.0000000000
     10473        85  POPS      H2S            21.7026441690       21.6090787439       31.7916718659  MEMB      79              0.0000000000
     10474        85  POPS      C3             17.4279792606       21.3314740693       30.4266310254  MEMB      79              0.0000000000
     10475        85  POPS      HX             17.4382726061       20.5212153958       29.6615566091  MEMB      79              0.0000000000
     10476        85  POPS      HY             16.3961564310       21.7469200641       30.4348018547  MEMB      79              0.0000000000
     10477        85  POPS      O31            17.7823103810       20.7310531799       31.6978761149  MEMB      79              0.0000000000
     10478        85  POPS      C31            17.6302081704       21.5127892017       32.7573022490  MEMB      79              0.0000000000
     10479        85  POPS      O32            17.2041375386       22.6517037099       32.7424398714  MEMB      79              0.0000000000
     10480        85  POPS      C32            18.0597072439       20.7599859622       34.0293142920  MEMB      79              0.0000000000
     10481        85  POPS      H2X            17.1392272388       20.6123139636       34.6333121721  MEMB      79              0.0000000000
     10482        85  POPS      H2Y            18.7504360067       21.4231493695       34.5870771483  MEMB      79              0.0000000000
     10483        85  POPS      C23            23.1186312043       23.1651882493       31.1624326979  MEMB      79              0.0000000000
     10484        85  POPS      H3R            23.2860704401       23.7881056016       30.2543134936  MEMB      79              0.0000000000
     10485        85  POPS      H3S            24.0621485200       22.6061735380       31.3565613413  MEMB      79              0.0000000000
     10486        85  POPS      C24            22.8432815833       24.0997364113       32.3515304339  MEMB      79              0.0000000000
     10487        85  POPS      H4R            21.7467045509       24.2436794462       32.4551889299  MEMB      79              0.0000000000
     10488        85  POPS      H4S            23.2724852473       25.1017416368       32.1242271116  MEMB      79              0.0000000000
     10489        85  POPS      C25            23.4505200128       23.6058563585       33.6726796075  MEMB      79              0.0000000000
     10490        85  POPS      H5R            24.5546753276       23.5304490184       33.5566750182  MEMB      79              0.0000000000
     10491        85  POPS      H5S            23.0802184645       22.5789188818       33.8795486938  MEMB      79              0.0000000000
     10492        85  POPS      C26            23.1408930425       24.5213089692       34.8710995322  MEMB      79              0.0000000000
     10493        85  POPS      H6R            23.6254144760       25.5107322172       34.7045898896  MEMB      79              0.0000000000
     10494        85  POPS      H6S            23.5947268060       24.0827944954       35.7880005901  MEMB      79              0.0000000000
     10495        85  POPS      C27            21.6393100775       24.7471447950       35.1152574591  MEMB      79              0.0000000000
     10496        85  POPS      H7R            21.2096882320       25.2769424349       34.2364843272  MEMB      79              0.0000000000
     10497        85  POPS      H7S            21.5035014170       25.4308424094       35.9842154848  MEMB      79              0.0000000000
     10498        85  POPS      C28            20.8351726702       23.4530360037       35.3358740437  MEMB      79              0.0000000000
     10499        85  POPS      H8R            21.0524763158       22.7135541086       34.5376732448  MEMB      79              0.0000000000
     10500        85  POPS      H8S            19.7581849191       23.7085603491       35.2031558346  MEMB      79              0.0000000000
     10501        85  POPS      C29            21.1035487733       22.8594130330       36.6966468506  MEMB      79              0.0000000000
     10502        85  POPS      H91            22.0131749716       22.2435666502       36.7824167024  MEMB      79              0.0000000000
     10503        85  POPS      C210           20.3132396093       23.0433455125       37.7682188645  MEMB      79              0.0000000000
     10504        85  POPS      H101           20.5684654719       22.5759949529       38.7318114629  MEMB      79              0.0000000000
     10505        85  POPS      C211           19.0528697283       23.8677795707       37.7505728161  MEMB      79              0.0000000000
     10506        85  POPS      H11R           19.1489662574       24.7061103838       37.0254107909  MEMB      79              0.0000000000
     10507        85  POPS      H11S           18.8747305568       24.3417857026       38.7387966266  MEMB      79              0.0000000000
     10508        85  POPS      C212           17.8264118205       23.0437719817       37.3147724262  MEMB      79              0.0000000000
     10509        85  POPS      H12R           18.0658342406       22.4478214857       36.4079080086  MEMB      79              0.0000000000
     10510        85  POPS      H12S           17.0163664903       23.7522338752       37.0241679570  MEMB      79              0.0000000000
     10511        85  POPS      C213           17.2836358148       22.1213435175       38.4080171971  MEMB      79              0.0000000000
     10512        85  POPS      H13R           18.0731642935       21.4228847884       38.7615536865  MEMB      79              0.0000000000
     10513        85  POPS      H13S           16.4631611807       21.5059099058       37.9725311449  MEMB      79              0.0000000000
     10514        85  POPS      C214           16.7278587296       22.9248143104       39.5857338293  MEMB      79              0.0000000000
     10515        85  POPS      H14R           16.1503057648       23.7856213409       39.1740543946  MEMB      79              0.0000000000
     10516        85  POPS      H14S           17.5503238575       23.3482162405       40.2018405719  MEMB      79              0.0000000000
     10517        85  POPS      C215           15.7761529304       22.1076439566       40.4533700372  MEMB      79              0.0000000000
     10518        85  POPS      H15R           15.0586563087       21.5582859649       39.8031866667  MEMB      79              0.0000000000
     10519        85  POPS      H15S           15.1860890828       22.8322678504       41.0585673752  MEMB      79              0.0000000000
     10520        85  POPS      C216           16.4625926268       21.1292392598       41.4158831172  MEMB      79              0.0000000000
     10521        85  POPS      H16R           17.1662531538       20.4663747924       40.8676302862  MEMB      79              0.0000000000
     10522        85  POPS      H16S           15.6847782501       20.4743509805       41.8708547589  MEMB      79              0.0000000000
     10523        85  POPS      C217           17.1901216379       21.8524141406       42.5537184940  MEMB      79              0.0000000000
     10524        85  POPS      H17R           16.5933803690       22.7419920967       42.8639221730  MEMB      79              0.0000000000
     10525        85  POPS      H17S           18.1667712013       22.2248228581       42.1704785253  MEMB      79              0.0000000000
     10526        85  POPS      C218           17.4139273057       20.9679305618       43.7776332005  MEMB      79              0.0000000000
     10527        85  POPS      H18R           17.8898023318       20.0081613663       43.4845679473  MEMB      79              0.0000000000
     10528        85  POPS      H18S           16.4502459970       20.7381937260       44.2805636167  MEMB      79              0.0000000000
     10529        85  POPS      H18T           18.0778151445       21.4883940996       44.5005352314  MEMB      79              0.0000000000
     10530        85  POPS      C33            18.7355110514       19.3878230639       33.7841560445  MEMB      79              0.0000000000
     10531        85  POPS      H3X            19.7427235836       19.5297082389       33.3314332882  MEMB      79              0.0000000000
     10532        85  POPS      H3Y            18.1228941921       18.7979409228       33.0610222492  MEMB      79              0.0000000000
     10533        85  POPS      C34            18.8508944267       18.5268054767       35.0526545591  MEMB      79              0.0000000000
     10534        85  POPS      H4X            19.2814225647       17.5430606890       34.7542004340  MEMB      79              0.0000000000
     10535        85  POPS      H4Y            17.8348283893       18.3382794679       35.4658004971  MEMB      79              0.0000000000
     10536        85  POPS      C35            19.7509274512       19.0848162276       36.1640671329  MEMB      79              0.0000000000
     10537        85  POPS      H5X            19.2555064109       19.9532502424       36.6513010007  MEMB      79              0.0000000000
     10538        85  POPS      H5Y            20.7085369125       19.4439187233       35.7240019005  MEMB      79              0.0000000000
     10539        85  POPS      C36            20.0510194157       17.9794755627       37.1918051692  MEMB      79              0.0000000000
     10540        85  POPS      H6X            20.5339177404       17.1331538420       36.6535359326  MEMB      79              0.0000000000
     10541        85  POPS      H6Y            19.0908848158       17.6041754472       37.6126758370  MEMB      79              0.0000000000
     10542        85  POPS      C37            20.9712510981       18.3984215044       38.3441436038  MEMB      79              0.0000000000
     10543        85  POPS      H7X            21.9398793585       18.7677309910       37.9410721572  MEMB      79              0.0000000000
     10544        85  POPS      H7Y            21.1878109495       17.5017124636       38.9635816321  MEMB      79              0.0000000000
     10545        85  POPS      C38            20.3444441903       19.4679993981       39.2406268972  MEMB      79              0.0000000000
     10546        85  POPS      H8X            19.2920647612       19.1948647807       39.4803001513  MEMB      79              0.0000000000
     10547        85  POPS      H8Y            20.3141940558       20.4199874682       38.6691478623  MEMB      79              0.0000000000
     10548        85  POPS      C39            21.1120527863       19.6854141317       40.5498807504  MEMB      79              0.0000000000
     10549        85  POPS      H9X            20.8376010518       20.6984595022       40.9223771176  MEMB      79              0.0000000000
     10550        85  POPS      H9Y            22.2066258022       19.6794540507       40.3546433830  MEMB      79              0.0000000000
     10551        85  POPS      C310           20.7560685795       18.6500170997       41.6308375454  MEMB      79              0.0000000000
     10552        85  POPS      H10X           21.0179776121       17.6304005492       41.2701526685  MEMB      79              0.0000000000
     10553        85  POPS      H10Y           19.6547938340       18.6732795744       41.7945263531  MEMB      79              0.0000000000
     10554        85  POPS      C311           21.4645648901       18.8986124444       42.9735685479  MEMB      79              0.0000000000
     10555        85  POPS      H11X           22.5602995701       18.8218021532       42.8006321500  MEMB      79              0.0000000000
     10556        85  POPS      H11Y           21.1854645401       18.0937325943       43.6895161246  MEMB      79              0.0000000000
     10557        85  POPS      C312           21.1138609280       20.2645821495       43.5910019152  MEMB      79              0.0000000000
     10558        85  POPS      H12X           20.0133485743       20.3395258383       43.6945009197  MEMB      79              0.0000000000
     10559        85  POPS      H12Y           21.4448837795       21.0690648067       42.8972631291  MEMB      79              0.0000000000
     10560        85  POPS      C313           21.7618495430       20.5548812120       44.9542311228  MEMB      79              0.0000000000
     10561        85  POPS      H13X           21.2913034819       19.9276622317       45.7416163790  MEMB      79              0.0000000000
     10562        85  POPS      H13Y           21.5579212660       21.6175217812       45.2076626551  MEMB      79              0.0000000000
     10563        85  POPS      C314           23.2691950316       20.2843113927       44.9248620290  MEMB      79              0.0000000000
     10564        85  POPS      H14X           23.6148159864       20.3849053758       43.8710589737  MEMB      79              0.0000000000
     10565        85  POPS      H14Y           23.4281254982       19.2283467965       45.2413059423  MEMB      79              0.0000000000
     10566        85  POPS      C315           24.1710609416       21.2092424579       45.7525557510  MEMB      79              0.0000000000
     10567        85  POPS      H15X           25.2229322341       20.8594105127       45.6296576543  MEMB      79              0.0000000000
     10568        85  POPS      H15Y           23.9258585423       21.0865476202       46.8270132144  MEMB      79              0.0000000000
     10569        85  POPS      C316           24.1154608520       22.6862856052       45.3473227933  MEMB      79              0.0000000000
     10570        85  POPS      H16X           24.3962205215       22.7996739536       44.2777777840  MEMB      79              0.0000000000
     10571        85  POPS      H16Y           24.8252923226       23.2805937658       45.9612989150  MEMB      79              0.0000000000
     10572        85  POPS      H16Z           23.0988328835       23.1069877125       45.4895375178  MEMB      79              0.0000000000
     10573        86  POPC      N              26.0686810931       17.3359369240       25.4690471953  MEMB      80              0.0000000000
     10574        86  POPC      C12            27.1681331225       18.1926552589       24.8634789120  MEMB      80              0.0000000000
     10575        86  POPC      H12A           27.1730716566       19.1584505412       25.3685997070  MEMB      80              0.0000000000
     10576        86  POPC      H12B           26.9464334728       18.3651564573       23.8194471648  MEMB      80              0.0000000000
     10577        86  POPC      C13            26.3030847068       17.1846700694       26.9350643232  MEMB      80              0.0000000000
     10578        86  POPC      H13A           25.4105116131       16.8760015893       27.4700955282  MEMB      80              0.0000000000
     10579        86  POPC      H13B           27.1070516842       16.4709314803       27.1051996395  MEMB      80              0.0000000000
     10580        86  POPC      H13C           26.6433070798       18.1148330161       27.3833396169  MEMB      80              0.0000000000
     10581        86  POPC      C14            24.7233772581       17.9695729365       25.3623749923  MEMB      80              0.0000000000
     10582        86  POPC      H14A           24.3820516825       17.9427330979       24.3428341806  MEMB      80              0.0000000000
     10583        86  POPC      H14B           23.9939020845       17.4481656328       25.9991045616  MEMB      80              0.0000000000
     10584        86  POPC      H14C           24.7054432018       18.9816353609       25.7692497829  MEMB      80              0.0000000000
     10585        86  POPC      C15            26.0264448817       15.9924907548       24.7994348773  MEMB      80              0.0000000000
     10586        86  POPC      H15A           26.9634168764       15.4569459545       24.9261281989  MEMB      80              0.0000000000
     10587        86  POPC      H15B           25.8597278757       16.1119216893       23.7329140991  MEMB      80              0.0000000000
     10588        86  POPC      H15C           25.2153468538       15.3757278805       25.1623133386  MEMB      80              0.0000000000
     10589        86  POPC      C11            28.6135902043       17.6533435445       24.9929118923  MEMB      80              0.0000000000
     10590        86  POPC      H11A           29.2646684522       18.1925366578       24.2656798231  MEMB      80              0.0000000000
     10591        86  POPC      H11B           28.6663532779       16.5811957849       24.7001866007  MEMB      80              0.0000000000
     10592        86  POPC      P              29.7639795070       16.8133078896       27.2513493577  MEMB      80              0.0000000000
     10593        86  POPC      O13            30.6249680120       15.9221464880       26.4605765984  MEMB      80              0.0000000000
     10594        86  POPC      O14            28.6940913335       16.2196199191       28.0824994079  MEMB      80              0.0000000000
     10595        86  POPC      O12            29.0812322547       17.8941635661       26.3148986802  MEMB      80              0.0000000000
     10596        86  POPC      O11            30.5805288137       17.7950490527       28.1570600159  MEMB      80              0.0000000000
     10597        86  POPC      C1             29.8502029039       18.8563997403       28.7808836547  MEMB      80              0.0000000000
     10598        86  POPC      HA             28.7367422714       18.7232078286       28.7446555726  MEMB      80              0.0000000000
     10599        86  POPC      HB             30.0983384148       19.7907706532       28.2433631602  MEMB      80              0.0000000000
     10600        86  POPC      C2             30.2082211336       18.9597480064       30.2772585429  MEMB      80              0.0000000000
     10601        86  POPC      HS             31.1415191842       19.5671749572       30.3266121006  MEMB      80              0.0000000000
     10602        86  POPC      O21            30.4579623089       17.6346219096       30.7759488760  MEMB      80              0.0000000000
     10603        86  POPC      C21            31.0664942336       17.6008649384       31.9286786203  MEMB      80              0.0000000000
     10604        86  POPC      O22            31.3903319823       18.5743945016       32.5900399264  MEMB      80              0.0000000000
     10605        86  POPC      C22            31.3314309376       16.1453400853       32.3068141910  MEMB      80              0.0000000000
     10606        86  POPC      H2R            31.8747879768       16.1329520853       33.2681946162  MEMB      80              0.0000000000
     10607        86  POPC      H2S            32.0014879185       15.7208638004       31.5295516800  MEMB      80              0.0000000000
     10608        86  POPC      C3             29.0651401171       19.6657035002       31.0635208400  MEMB      80              0.0000000000
     10609        86  POPC      HX             28.9310905981       20.6676000248       30.5862352532  MEMB      80              0.0000000000
     10610        86  POPC      HY             29.3769562568       19.8248732522       32.1189019172  MEMB      80              0.0000000000
     10611        86  POPC      O31            27.8509609210       18.8757545205       31.0063453997  MEMB      80              0.0000000000
     10612        86  POPC      C31            26.7693033649       19.5380570980       31.4125373677  MEMB      80              0.0000000000
     10613        86  POPC      O32            26.7691439530       20.7095715342       31.7538609658  MEMB      80              0.0000000000
     10614        86  POPC      C32            25.5449514546       18.6201766761       31.3649892836  MEMB      80              0.0000000000
     10615        86  POPC      H2X            25.8131886448       17.6439130483       31.8116923174  MEMB      80              0.0000000000
     10616        86  POPC      H2Y            25.3192966572       18.4536902745       30.2889856898  MEMB      80              0.0000000000
     10617        86  POPC      C23            30.0490860644       15.2835318763       32.3464206202  MEMB      80              0.0000000000
     10618        86  POPC      H3R            30.3592077872       14.2198364312       32.4538895055  MEMB      80              0.0000000000
     10619        86  POPC      H3S            29.5181019441       15.3596267307       31.3683645953  MEMB      80              0.0000000000
     10620        86  POPC      C24            29.0724185729       15.6242789063       33.4853464045  MEMB      80              0.0000000000
     10621        86  POPC      H4R            28.2381028723       14.8872744820       33.4237866773  MEMB      80              0.0000000000
     10622        86  POPC      H4S            28.6293303028       16.6236935795       33.2896657634  MEMB      80              0.0000000000
     10623        86  POPC      C25            29.6739877835       15.5468921266       34.9026786258  MEMB      80              0.0000000000
     10624        86  POPC      H5R            30.5062998091       14.8100563398       34.8973548091  MEMB      80              0.0000000000
     10625        86  POPC      H5S            28.8945940611       15.1607895120       35.5984674992  MEMB      80              0.0000000000
     10626        86  POPC      C26            30.1681242861       16.8895820878       35.4747144628  MEMB      80              0.0000000000
     10627        86  POPC      H6R            30.8891770296       17.3521099601       34.7691926805  MEMB      80              0.0000000000
     10628        86  POPC      H6S            30.7232060006       16.7001973255       36.4204827529  MEMB      80              0.0000000000
     10629        86  POPC      C27            29.0379383911       17.8920879793       35.7587317927  MEMB      80              0.0000000000
     10630        86  POPC      H7R            28.4577741617       17.5589776571       36.6493527561  MEMB      80              0.0000000000
     10631        86  POPC      H7S            28.3332060106       17.9038456579       34.8987373833  MEMB      80              0.0000000000
     10632        86  POPC      C28            29.5396884478       19.3384270353       35.9362122960  MEMB      80              0.0000000000
     10633        86  POPC      H8R            28.6670179527       20.0166949115       35.7957587786  MEMB      80              0.0000000000
     10634        86  POPC      H8S            30.2524781424       19.5764093822       35.1135941518  MEMB      80              0.0000000000
     10635        86  POPC      C29            30.1765569710       19.5741520458       37.2805007706  MEMB      80              0.0000000000
     10636        86  POPC      H91            31.2769225189       19.5212638350       37.3065293805  MEMB      80              0.0000000000
     10637        86  POPC      C210           29.5074004268       19.8397312151       38.4163095382  MEMB      80              0.0000000000
     10638        86  POPC      H101           30.0843888686       19.9958903014       39.3381729807  MEMB      80              0.0000000000
     10639        86  POPC      C211           28.0095136222       19.9565785292       38.5877872165  MEMB      80              0.0000000000
     10640        86  POPC      H11R           27.6482448175       19.1212394564       39.2265914571  MEMB      80              0.0000000000
     10641        86  POPC      H11S           27.4617103003       19.8842023051       37.6228653188  MEMB      80              0.0000000000
     10642        86  POPC      C212           27.6456246513       21.2872931679       39.2735410689  MEMB      80              0.0000000000
     10643        86  POPC      H12R           28.0637168232       22.1303029469       38.6770517834  MEMB      80              0.0000000000
     10644        86  POPC      H12S           28.1329883406       21.3082722640       40.2715652548  MEMB      80              0.0000000000
     10645        86  POPC      C213           26.1381938504       21.5491014222       39.4739715485  MEMB      80              0.0000000000
     10646        86  POPC      H13R           25.6667608589       21.6371131955       38.4690378472  MEMB      80              0.0000000000
     10647        86  POPC      H13S           26.0148241601       22.5269462412       39.9931675569  MEMB      80              0.0000000000
     10648        86  POPC      C214           25.3896943688       20.4698743953       40.2724823581  MEMB      80              0.0000000000
     10649        86  POPC      H14R           25.5260102580       19.4980799115       39.7473579712  MEMB      80              0.0000000000
     10650        86  POPC      H14S           24.2990318636       20.6897473582       40.2627515666  MEMB      80              0.0000000000
     10651        86  POPC      C215           25.8349950227       20.3031618214       41.7388457290  MEMB      80              0.0000000000
     10652        86  POPC      H15R           25.1827392939       20.9122986167       42.4001365440  MEMB      80              0.0000000000
     10653        86  POPC      H15S           26.8719542423       20.6772425776       41.8688486105  MEMB      80              0.0000000000
     10654        86  POPC      C216           25.7999734711       18.8200140733       42.1400588924  MEMB      80              0.0000000000
     10655        86  POPC      H16R           26.5620200008       18.3040631019       41.5198933004  MEMB      80              0.0000000000
     10656        86  POPC      H16S           24.8070604063       18.3995312715       41.8607259090  MEMB      80              0.0000000000
     10657        86  POPC      C217           26.0534878303       18.4941410119       43.6233760520  MEMB      80              0.0000000000
     10658        86  POPC      H17R           26.0569512889       17.3846500375       43.7279581037  MEMB      80              0.0000000000
     10659        86  POPC      H17S           25.1928938219       18.8525615206       44.2112593020  MEMB      80              0.0000000000
     10660        86  POPC      C218           27.3285500280       19.0597285315       44.2555711541  MEMB      80              0.0000000000
     10661        86  POPC      H18R           28.2137309572       18.5100657531       43.8813743140  MEMB      80              0.0000000000
     10662        86  POPC      H18S           27.3079703572       18.9382417725       45.3578990714  MEMB      80              0.0000000000
     10663        86  POPC      H18T           27.4430313877       20.1404940333       44.0301174841  MEMB      80              0.0000000000
     10664        86  POPC      C33            24.2877342344       19.2372380740       32.0374385824  MEMB      80              0.0000000000
     10665        86  POPC      H3X            23.4082607415       18.6005801481       31.7857760593  MEMB      80              0.0000000000
     10666        86  POPC      H3Y            24.0872913892       20.2422393564       31.6003728535  MEMB      80              0.0000000000
     10667        86  POPC      C34            24.3578003669       19.3578751229       33.5684336875  MEMB      80              0.0000000000
     10668        86  POPC      H4X            23.4016236298       19.8016137470       33.9322435214  MEMB      80              0.0000000000
     10669        86  POPC      H4Y            25.1774232989       20.0586393529       33.8473766199  MEMB      80              0.0000000000
     10670        86  POPC      C35            24.5667651950       18.0139091568       34.2727369656  MEMB      80              0.0000000000
     10671        86  POPC      H5X            25.5307576534       17.5711190721       33.9362703591  MEMB      80              0.0000000000
     10672        86  POPC      H5Y            23.7514361048       17.3134281917       33.9812179462  MEMB      80              0.0000000000
     10673        86  POPC      C36            24.6113781872       18.1172108005       35.8010257374  MEMB      80              0.0000000000
     10674        86  POPC      H6X            23.5946106275       18.3174991040       36.2041795267  MEMB      80              0.0000000000
     10675        86  POPC      H6Y            25.2722492876       18.9660804893       36.0915708196  MEMB      80              0.0000000000
     10676        86  POPC      C37            25.1817091114       16.8311413300       36.4073827573  MEMB      80              0.0000000000
     10677        86  POPC      H7X            26.2086378306       16.6843664058       35.9992944309  MEMB      80              0.0000000000
     10678        86  POPC      H7Y            24.5749790407       15.9598057519       36.0814868820  MEMB      80              0.0000000000
     10679        86  POPC      C38            25.2687366780       16.8565612571       37.9368273499  MEMB      80              0.0000000000
     10680        86  POPC      H8X            24.2576054178       16.9497009284       38.3894394645  MEMB      80              0.0000000000
     10681        86  POPC      H8Y            25.8606888372       17.7527563124       38.2337233594  MEMB      80              0.0000000000
     10682        86  POPC      C39            25.9729875934       15.6034454393       38.4704043196  MEMB      80              0.0000000000
     10683        86  POPC      H9X            26.8843807231       15.4481148866       37.8460679271  MEMB      80              0.0000000000
     10684        86  POPC      H9Y            25.3242497303       14.7099963147       38.3456092165  MEMB      80              0.0000000000
     10685        86  POPC      C310           26.4243772299       15.7413631622       39.9289695782  MEMB      80              0.0000000000
     10686        86  POPC      H10X           25.5662676217       15.5971347587       40.6197491171  MEMB      80              0.0000000000
     10687        86  POPC      H10Y           26.8024588574       16.7772348008       40.0674693606  MEMB      80              0.0000000000
     10688        86  POPC      C311           27.5616564273       14.7683286122       40.2597724217  MEMB      80              0.0000000000
     10689        86  POPC      H11X           28.3855309143       14.9190779949       39.5249190792  MEMB      80              0.0000000000
     10690        86  POPC      H11Y           27.1881908502       13.7262198441       40.1338751558  MEMB      80              0.0000000000
     10691        86  POPC      C312           28.1412463042       14.9130209244       41.6753119771  MEMB      80              0.0000000000
     10692        86  POPC      H12X           28.9612020263       14.1687656813       41.7714410933  MEMB      80              0.0000000000
     10693        86  POPC      H12Y           27.3469532551       14.6486953132       42.4061686099  MEMB      80              0.0000000000
     10694        86  POPC      C313           28.7117776646       16.2918972834       42.0655464670  MEMB      80              0.0000000000
     10695        86  POPC      H13X           29.3405698079       16.1548924752       42.9742741835  MEMB      80              0.0000000000
     10696        86  POPC      H13Y           27.8753060029       16.9535063801       42.3515526611  MEMB      80              0.0000000000
     10697        86  POPC      C314           29.5414363720       16.9901540411       40.9778912543  MEMB      80              0.0000000000
     10698        86  POPC      H14X           28.8770032604       17.4118642010       40.1947509810  MEMB      80              0.0000000000
     10699        86  POPC      H14Y           30.1648529697       16.2168259307       40.4774591456  MEMB      80              0.0000000000
     10700        86  POPC      C315           30.4797542293       18.0979821536       41.4968488975  MEMB      80              0.0000000000
     10701        86  POPC      H15X           31.1828695870       18.3198668773       40.6625778222  MEMB      80              0.0000000000
     10702        86  POPC      H15Y           31.0852696807       17.7165451199       42.3481264276  MEMB      80              0.0000000000
     10703        86  POPC      C316           29.8211870854       19.4100143825       41.9269290429  MEMB      80              0.0000000000
     10704        86  POPC      H16X           30.3732939294       20.2829181513       41.5187171360  MEMB      80              0.0000000000
     10705        86  POPC      H16Y           29.8303317701       19.5073977031       43.0321970553  MEMB      80              0.0000000000
     10706        86  POPC      H16Z           28.7728856946       19.4572704762       41.5643913082  MEMB      80              0.0000000000
     10707        87  POPC      N              18.3618343317       41.1400322136       24.7972367771  MEMB      81              0.0000000000
     10708        87  POPC      C12            18.6501400198       39.6501509372       24.9401311444  MEMB      81              0.0000000000
     10709        87  POPC      H12A           19.3724326732       39.3753902623       24.1748628201  MEMB      81              0.0000000000
     10710        87  POPC      H12B           17.7504735427       39.0911705801       24.7361653783  MEMB      81              0.0000000000
     10711        87  POPC      C13            17.7119160235       41.4131760388       23.4838511845  MEMB      81              0.0000000000
     10712        87  POPC      H13A           18.3192715282       41.0401261325       22.6638233512  MEMB      81              0.0000000000
     10713        87  POPC      H13B           16.7516724368       40.9213998945       23.4289705075  MEMB      81              0.0000000000
     10714        87  POPC      H13C           17.5696278820       42.4825269350       23.3440627585  MEMB      81              0.0000000000
     10715        87  POPC      C14            17.5015104720       41.6129371045       25.9253995003  MEMB      81              0.0000000000
     10716        87  POPC      H14A           16.5080530315       41.2023458258       25.8822584033  MEMB      81              0.0000000000
     10717        87  POPC      H14B           17.9552493069       41.2687427022       26.8574265606  MEMB      81              0.0000000000
     10718        87  POPC      H14C           17.4776421820       42.6978323136       25.9640313425  MEMB      81              0.0000000000
     10719        87  POPC      C15            19.6492260225       41.9177325220       24.8690083205  MEMB      81              0.0000000000
     10720        87  POPC      H15A           19.5137341213       42.9675493590       24.6451633710  MEMB      81              0.0000000000
     10721        87  POPC      H15B           20.4039824690       41.5330462863       24.1908800741  MEMB      81              0.0000000000
     10722        87  POPC      H15C           20.0698153144       41.8364019210       25.8744241112  MEMB      81              0.0000000000
     10723        87  POPC      C11            19.2154850421       39.1327449978       26.2839752896  MEMB      81              0.0000000000
     10724        87  POPC      H11A           19.2107538685       38.0189034929       26.2698638663  MEMB      81              0.0000000000
     10725        87  POPC      H11B           18.5540168284       39.4352508048       27.1285489610  MEMB      81              0.0000000000
     10726        87  POPC      P              21.0954941673       40.3107712707       27.7112000669  MEMB      81              0.0000000000
     10727        87  POPC      O13            22.3900515505       40.9197100823       27.3115452952  MEMB      81              0.0000000000
     10728        87  POPC      O14            21.0564286825       39.4313276488       28.8934224177  MEMB      81              0.0000000000
     10729        87  POPC      O12            20.5561108608       39.5613021637       26.4397125084  MEMB      81              0.0000000000
     10730        87  POPC      O11            20.0037942047       41.4432080789       27.8559911185  MEMB      81              0.0000000000
     10731        87  POPC      C1             19.3223633092       41.5970985077       29.1006050328  MEMB      81              0.0000000000
     10732        87  POPC      HA             18.9621886373       40.6234275656       29.5119296839  MEMB      81              0.0000000000
     10733        87  POPC      HB             18.4098966013       42.2114638395       28.9392242654  MEMB      81              0.0000000000
     10734        87  POPC      C2             20.2183827852       42.3146532223       30.1397220907  MEMB      81              0.0000000000
     10735        87  POPC      HS             21.2233539249       42.4722508009       29.6813478437  MEMB      81              0.0000000000
     10736        87  POPC      O21            20.2673216291       41.4915475978       31.3238898364  MEMB      81              0.0000000000
     10737        87  POPC      C21            21.4380686856       40.9323195240       31.6103884804  MEMB      81              0.0000000000
     10738        87  POPC      O22            22.5256140390       41.3038572948       31.2015748381  MEMB      81              0.0000000000
     10739        87  POPC      C22            21.1974486410       39.6951686679       32.4765635630  MEMB      81              0.0000000000
     10740        87  POPC      H2R            21.3626175992       38.8257383948       31.8016852623  MEMB      81              0.0000000000
     10741        87  POPC      H2S            20.1433400997       39.6746096414       32.8155657048  MEMB      81              0.0000000000
     10742        87  POPC      C3             19.6136065867       43.7128613640       30.4297252247  MEMB      81              0.0000000000
     10743        87  POPC      HX             19.4970108593       44.2290858491       29.4484840588  MEMB      81              0.0000000000
     10744        87  POPC      HY             20.3109372006       44.3388813271       31.0269394740  MEMB      81              0.0000000000
     10745        87  POPC      O31            18.3143288365       43.5603459943       31.0344004036  MEMB      81              0.0000000000
     10746        87  POPC      C31            18.3950429952       43.4619297502       32.3677264522  MEMB      81              0.0000000000
     10747        87  POPC      O32            19.3704738714       43.7607430149       33.0334964358  MEMB      81              0.0000000000
     10748        87  POPC      C32            17.0439224589       43.0432622762       32.9245885999  MEMB      81              0.0000000000
     10749        87  POPC      H2X            16.5266371300       42.3870725744       32.1955899826  MEMB      81              0.0000000000
     10750        87  POPC      H2Y            16.4578087825       43.9807507900       33.0304510021  MEMB      81              0.0000000000
     10751        87  POPC      C23            22.1547578331       39.5980759121       33.6833811471  MEMB      81              0.0000000000
     10752        87  POPC      H3R            23.2129612805       39.7044407662       33.3533401234  MEMB      81              0.0000000000
     10753        87  POPC      H3S            22.0363978109       38.5734898645       34.1068688280  MEMB      81              0.0000000000
     10754        87  POPC      C24            21.8522848436       40.6032693109       34.8033541406  MEMB      81              0.0000000000
     10755        87  POPC      H4R            20.7515717136       40.7366624261       34.9036442695  MEMB      81              0.0000000000
     10756        87  POPC      H4S            22.2886714361       41.5928065285       34.5401393376  MEMB      81              0.0000000000
     10757        87  POPC      C25            22.4087738528       40.1179429685       36.1500605866  MEMB      81              0.0000000000
     10758        87  POPC      H5R            23.4513936717       39.7651248322       35.9912225501  MEMB      81              0.0000000000
     10759        87  POPC      H5S            21.7986254538       39.2499875895       36.4866520384  MEMB      81              0.0000000000
     10760        87  POPC      C26            22.4345323636       41.1770631803       37.2580756614  MEMB      81              0.0000000000
     10761        87  POPC      H6R            23.2610894188       41.8841275343       37.0431155426  MEMB      81              0.0000000000
     10762        87  POPC      H6S            22.6749704690       40.6818112885       38.2261659173  MEMB      81              0.0000000000
     10763        87  POPC      C27            21.1293658192       41.9712476427       37.4003466126  MEMB      81              0.0000000000
     10764        87  POPC      H7R            20.2799085458       41.2567066560       37.4923574871  MEMB      81              0.0000000000
     10765        87  POPC      H7S            20.9705462252       42.5748066521       36.4770283685  MEMB      81              0.0000000000
     10766        87  POPC      C28            21.1476105650       42.8961533205       38.6304417356  MEMB      81              0.0000000000
     10767        87  POPC      H8R            22.0377552620       43.5612813693       38.5720575932  MEMB      81              0.0000000000
     10768        87  POPC      H8S            21.2734735235       42.2791509187       39.5416731094  MEMB      81              0.0000000000
     10769        87  POPC      C29            19.8967782023       43.7283807998       38.6839581931  MEMB      81              0.0000000000
     10770        87  POPC      H91            19.8431426492       44.4932185783       37.9008452735  MEMB      81              0.0000000000
     10771        87  POPC      C210           18.8575602406       43.6197747468       39.5264851479  MEMB      81              0.0000000000
     10772        87  POPC      H101           18.0055070350       44.3076892411       39.4009792548  MEMB      81              0.0000000000
     10773        87  POPC      C211           18.6902871159       42.6218259484       40.6378814639  MEMB      81              0.0000000000
     10774        87  POPC      H11R           18.2619097705       43.1197952630       41.5361475856  MEMB      81              0.0000000000
     10775        87  POPC      H11S           19.6614563925       42.1817277783       40.9511094122  MEMB      81              0.0000000000
     10776        87  POPC      C212           17.7515424815       41.4829009138       40.2025035678  MEMB      81              0.0000000000
     10777        87  POPC      H12R           17.6900253745       40.7493562513       41.0323572032  MEMB      81              0.0000000000
     10778        87  POPC      H12S           18.1919481577       40.9556386461       39.3275767875  MEMB      81              0.0000000000
     10779        87  POPC      C213           16.3396593330       41.9765339295       39.8511063498  MEMB      81              0.0000000000
     10780        87  POPC      H13R           16.4192294101       42.6112419676       38.9404650874  MEMB      81              0.0000000000
     10781        87  POPC      H13S           15.9679956972       42.6241373544       40.6748293153  MEMB      81              0.0000000000
     10782        87  POPC      C214           15.3131704113       40.8680494028       39.5495239541  MEMB      81              0.0000000000
     10783        87  POPC      H14R           15.6777130072       40.2760825957       38.6807456183  MEMB      81              0.0000000000
     10784        87  POPC      H14S           14.3518965675       41.3404435662       39.2449068831  MEMB      81              0.0000000000
     10785        87  POPC      C215           15.0223172175       39.9158291954       40.7188313377  MEMB      81              0.0000000000
     10786        87  POPC      H15R           15.9717199029       39.4380877695       41.0455250964  MEMB      81              0.0000000000
     10787        87  POPC      H15S           14.3484783586       39.1089593118       40.3583744105  MEMB      81              0.0000000000
     10788        87  POPC      C216           14.3505866151       40.6001466480       41.9153295696  MEMB      81              0.0000000000
     10789        87  POPC      H16R           13.3214393807       40.9213208476       41.6433357376  MEMB      81              0.0000000000
     10790        87  POPC      H16S           14.9237447663       41.5172952252       42.1741917156  MEMB      81              0.0000000000
     10791        87  POPC      C217           14.3078124585       39.7156270024       43.1651291842  MEMB      81              0.0000000000
     10792        87  POPC      H17R           15.3070210300       39.2407296723       43.2870087010  MEMB      81              0.0000000000
     10793        87  POPC      H17S           13.5690668524       38.8950860697       43.0289305051  MEMB      81              0.0000000000
     10794        87  POPC      C218           13.9936034282       40.5169246862       44.4297497369  MEMB      81              0.0000000000
     10795        87  POPC      H18R           14.6036828600       41.4456538966       44.4577939519  MEMB      81              0.0000000000
     10796        87  POPC      H18S           14.2425426471       39.9304150196       45.3363464125  MEMB      81              0.0000000000
     10797        87  POPC      H18T           12.9209960215       40.8021944930       44.4621133106  MEMB      81              0.0000000000
     10798        87  POPC      C33            17.1275571206       42.3520122743       34.3051944019  MEMB      81              0.0000000000
     10799        87  POPC      H3X            16.1116565101       42.3981738242       34.7575319889  MEMB      81              0.0000000000
     10800        87  POPC      H3Y            17.8144954856       42.8872620978       34.9977837354  MEMB      81              0.0000000000
     10801        87  POPC      C34            17.4924199148       40.8655913190       34.2182629122  MEMB      81              0.0000000000
     10802        87  POPC      H4X            18.5544257411       40.7620428921       33.9046580995  MEMB      81              0.0000000000
     10803        87  POPC      H4Y            16.8565314766       40.3850330013       33.4402567765  MEMB      81              0.0000000000
     10804        87  POPC      C35            17.2621910995       40.1240270481       35.5454512899  MEMB      81              0.0000000000
     10805        87  POPC      H5X            16.2091312445       40.2723369402       35.8735745851  MEMB      81              0.0000000000
     10806        87  POPC      H5Y            17.9183243544       40.5714133832       36.3255190179  MEMB      81              0.0000000000
     10807        87  POPC      C36            17.5377211704       38.6167349773       35.4280723217  MEMB      81              0.0000000000
     10808        87  POPC      H6X            18.5992992972       38.4761903829       35.1202793256  MEMB      81              0.0000000000
     10809        87  POPC      H6Y            16.8947148028       38.1852836793       34.6288555181  MEMB      81              0.0000000000
     10810        87  POPC      C37            17.3056790740       37.8341969408       36.7312508108  MEMB      81              0.0000000000
     10811        87  POPC      H7X            17.5443774450       36.7634201749       36.5383064916  MEMB      81              0.0000000000
     10812        87  POPC      H7Y            16.2351181640       37.8861857207       37.0298115511  MEMB      81              0.0000000000
     10813        87  POPC      C38            18.1853414534       38.3385284766       37.8813143364  MEMB      81              0.0000000000
     10814        87  POPC      H8X            17.6111233216       39.0709833656       38.4876425902  MEMB      81              0.0000000000
     10815        87  POPC      H8Y            19.0586520301       38.8740618320       37.4441058537  MEMB      81              0.0000000000
     10816        87  POPC      C39            18.7083429852       37.2197764759       38.7880168337  MEMB      81              0.0000000000
     10817        87  POPC      H9X            19.3066761404       36.5097734081       38.1723346739  MEMB      81              0.0000000000
     10818        87  POPC      H9Y            17.8448107376       36.6607496988       39.2150496583  MEMB      81              0.0000000000
     10819        87  POPC      C310           19.5825660560       37.7454945200       39.9347946621  MEMB      81              0.0000000000
     10820        87  POPC      H10X           19.9260781432       36.8823664023       40.5488267365  MEMB      81              0.0000000000
     10821        87  POPC      H10Y           18.9680671283       38.4019311384       40.5889281404  MEMB      81              0.0000000000
     10822        87  POPC      C311           20.8165652381       38.5228991341       39.4520123973  MEMB      81              0.0000000000
     10823        87  POPC      H11X           20.5132241612       39.4840915144       38.9836878012  MEMB      81              0.0000000000
     10824        87  POPC      H11Y           21.3274071981       37.9131951620       38.6731929509  MEMB      81              0.0000000000
     10825        87  POPC      C312           21.8105936044       38.8051333888       40.5817643841  MEMB      81              0.0000000000
     10826        87  POPC      H12X           22.8064932440       39.0461788053       40.1441813714  MEMB      81              0.0000000000
     10827        87  POPC      H12Y           21.9145191809       37.8771326342       41.1879192245  MEMB      81              0.0000000000
     10828        87  POPC      C313           21.3993068376       39.9625159172       41.4983693653  MEMB      81              0.0000000000
     10829        87  POPC      H13X           20.2919144591       39.9875082153       41.6006267877  MEMB      81              0.0000000000
     10830        87  POPC      H13Y           21.7157544600       40.9206639832       41.0359462055  MEMB      81              0.0000000000
     10831        87  POPC      C314           22.0144141022       39.8512940200       42.8971063317  MEMB      81              0.0000000000
     10832        87  POPC      H14X           23.1160756378       39.7442769255       42.8078441231  MEMB      81              0.0000000000
     10833        87  POPC      H14Y           21.6232598754       38.9302374647       43.3850775605  MEMB      81              0.0000000000
     10834        87  POPC      C315           21.6985790312       41.0644058543       43.7743044040  MEMB      81              0.0000000000
     10835        87  POPC      H15X           20.6336970340       41.3482984536       43.6246348968  MEMB      81              0.0000000000
     10836        87  POPC      H15Y           22.3222901611       41.9220256127       43.4352756311  MEMB      81              0.0000000000
     10837        87  POPC      C316           21.9353174523       40.8100209898       45.2614801952  MEMB      81              0.0000000000
     10838        87  POPC      H16X           21.7324244633       41.7282600990       45.8526540981  MEMB      81              0.0000000000
     10839        87  POPC      H16Y           22.9863224365       40.4965376288       45.4346367899  MEMB      81              0.0000000000
     10840        87  POPC      H16Z           21.2653142697       40.0029155316       45.6294390068  MEMB      81              0.0000000000
     10841        88  POPS      N              42.9582299453       12.8784777482       24.0564298362  MEMB      82              0.0000000000
     10842        88  POPS      HN1            43.8044626874       12.2855943077       23.8901324469  MEMB      82              0.0000000000
     10843        88  POPS      HN2            42.2672202764       12.4055197444       24.6668281310  MEMB      82              0.0000000000
     10844        88  POPS      HN3            42.5006304211       13.0856646555       23.1498381145  MEMB      82              0.0000000000
     10845        88  POPS      C12            43.4310109786       14.1363322452       24.7313604849  MEMB      82              0.0000000000
     10846        88  POPS      H12A           42.7571258619       14.9519386642       24.5149982091  MEMB      82              0.0000000000
     10847        88  POPS      C13            44.8625242229       14.4791142655       24.2466348164  MEMB      82              0.0000000000
     10848        88  POPS      O13A           45.6223210723       13.5051473064       23.9984354961  MEMB      82              0.0000000000
     10849        88  POPS      O13B           45.1965098378       15.6731885243       24.0205884468  MEMB      82              0.0000000000
     10850        88  POPS      C11            43.4241974723       13.8142878826       26.2552349649  MEMB      82              0.0000000000
     10851        88  POPS      H11A           44.2819086324       13.1504617841       26.5057444203  MEMB      82              0.0000000000
     10852        88  POPS      H11B           42.4866057503       13.2373931642       26.4617615349  MEMB      82              0.0000000000
     10853        88  POPS      P              42.7199643987       14.9707446894       28.4605306318  MEMB      82              0.0000000000
     10854        88  POPS      O13            41.2776106529       15.0484826352       28.1424700418  MEMB      82              0.0000000000
     10855        88  POPS      O14            43.3259807859       15.9286097453       29.3948097023  MEMB      82              0.0000000000
     10856        88  POPS      O12            43.4868514283       14.9950797526       27.0636358620  MEMB      82              0.0000000000
     10857        88  POPS      O11            43.0624294928       13.5163614525       28.9600550265  MEMB      82              0.0000000000
     10858        88  POPS      C1             42.0842097124       12.5233154438       29.2380953660  MEMB      82              0.0000000000
     10859        88  POPS      HA             42.6076893735       11.5437994657       29.2432595124  MEMB      82              0.0000000000
     10860        88  POPS      HB             41.2955850540       12.4774679160       28.4512258006  MEMB      82              0.0000000000
     10861        88  POPS      C2             41.3898186963       12.6727687562       30.6245083185  MEMB      82              0.0000000000
     10862        88  POPS      HS             40.6242344721       13.4798119222       30.5051528165  MEMB      82              0.0000000000
     10863        88  POPS      O21            42.3406978943       13.0288590531       31.6428828334  MEMB      82              0.0000000000
     10864        88  POPS      C21            41.7982545551       13.4700389314       32.7656921864  MEMB      82              0.0000000000
     10865        88  POPS      O22            40.6024356307       13.5785376135       32.9836145918  MEMB      82              0.0000000000
     10866        88  POPS      C22            42.9327556272       13.7775943356       33.7433796459  MEMB      82              0.0000000000
     10867        88  POPS      H2R            43.5654963243       14.5449925861       33.2508197316  MEMB      82              0.0000000000
     10868        88  POPS      H2S            43.5281726706       12.8486891524       33.8706328812  MEMB      82              0.0000000000
     10869        88  POPS      C3             40.6819711750       11.3383951856       30.9762046070  MEMB      82              0.0000000000
     10870        88  POPS      HX             40.0391578774       11.1278475457       30.0995406379  MEMB      82              0.0000000000
     10871        88  POPS      HY             40.0089852614       11.4369058097       31.8578708775  MEMB      82              0.0000000000
     10872        88  POPS      O31            41.6232345986       10.2480269546       31.0862314950  MEMB      82              0.0000000000
     10873        88  POPS      C31            41.9947035617        9.9319804307       32.3217136337  MEMB      82              0.0000000000
     10874        88  POPS      O32            41.6205682659       10.4665908055       33.3484876330  MEMB      82              0.0000000000
     10875        88  POPS      C32            42.9124539551        8.7063670637       32.2456066833  MEMB      82              0.0000000000
     10876        88  POPS      H2X            42.7124831266        8.1935114168       31.2823951358  MEMB      82              0.0000000000
     10877        88  POPS      H2Y            42.6256190011        8.0260689489       33.0717267696  MEMB      82              0.0000000000
     10878        88  POPS      C23            42.4461134109       14.2675358651       35.1247732367  MEMB      82              0.0000000000
     10879        88  POPS      H3R            41.8065573072       13.4792986792       35.5885091010  MEMB      82              0.0000000000
     10880        88  POPS      H3S            41.8217290349       15.1834115160       35.0114078771  MEMB      82              0.0000000000
     10881        88  POPS      C24            43.6127399295       14.5699319485       36.0771708915  MEMB      82              0.0000000000
     10882        88  POPS      H4R            44.2746449778       13.6763402895       36.1310171107  MEMB      82              0.0000000000
     10883        88  POPS      H4S            43.2017166729       14.7458420859       37.0934318041  MEMB      82              0.0000000000
     10884        88  POPS      C25            44.4303032535       15.7984542505       35.6570212624  MEMB      82              0.0000000000
     10885        88  POPS      H5R            43.8055475202       16.7135020973       35.7531107797  MEMB      82              0.0000000000
     10886        88  POPS      H5S            44.6954006962       15.7071920583       34.5793277611  MEMB      82              0.0000000000
     10887        88  POPS      C26            45.7466382768       15.9749677347       36.4286242563  MEMB      82              0.0000000000
     10888        88  POPS      H6R            46.3828367564       16.6604040182       35.8190282871  MEMB      82              0.0000000000
     10889        88  POPS      H6S            46.2881321537       15.0087743370       36.5062657449  MEMB      82              0.0000000000
     10890        88  POPS      C27            45.5957998157       16.6272271051       37.8133300763  MEMB      82              0.0000000000
     10891        88  POPS      H7R            44.7962831026       17.3954738406       37.7641559549  MEMB      82              0.0000000000
     10892        88  POPS      H7S            46.5571133410       17.1438136369       38.0429027047  MEMB      82              0.0000000000
     10893        88  POPS      C28            45.2753057914       15.6370934681       38.9442000716  MEMB      82              0.0000000000
     10894        88  POPS      H8R            45.8805513943       14.7183269070       38.7817681912  MEMB      82              0.0000000000
     10895        88  POPS      H8S            44.2126452052       15.3305878200       38.8516244882  MEMB      82              0.0000000000
     10896        88  POPS      C29            45.5069397121       16.2357735716       40.3100049070  MEMB      82              0.0000000000
     10897        88  POPS      H91            45.0640724097       17.2330379706       40.4655845077  MEMB      82              0.0000000000
     10898        88  POPS      C210           46.1861928336       15.6519277047       41.3123822666  MEMB      82              0.0000000000
     10899        88  POPS      H101           46.2748348416       16.1760982623       42.2774453830  MEMB      82              0.0000000000
     10900        88  POPS      C211           46.8405107397       14.2921929849       41.2514088687  MEMB      82              0.0000000000
     10901        88  POPS      H11R           47.6279854989       14.2379994714       42.0230999040  MEMB      82              0.0000000000
     10902        88  POPS      H11S           47.3660299701       14.1597782307       40.2784829363  MEMB      82              0.0000000000
     10903        88  POPS      C212           45.8751568446       13.0983663242       41.4359093969  MEMB      82              0.0000000000
     10904        88  POPS      H12R           46.4362972108       12.1443202987       41.3307808854  MEMB      82              0.0000000000
     10905        88  POPS      H12S           45.1346310246       13.1355928778       40.6034646822  MEMB      82              0.0000000000
     10906        88  POPS      C213           45.0989501921       13.0927592871       42.7651686030  MEMB      82              0.0000000000
     10907        88  POPS      H13R           44.0122713614       13.0310508463       42.5269922297  MEMB      82              0.0000000000
     10908        88  POPS      H13S           45.2538857677       14.0585237828       43.2930597142  MEMB      82              0.0000000000
     10909        88  POPS      C214           45.4408196833       11.9439334587       43.7341716717  MEMB      82              0.0000000000
     10910        88  POPS      H14R           46.5277657775       11.9563461285       43.9677860854  MEMB      82              0.0000000000
     10911        88  POPS      H14S           45.1970986348       10.9678546184       43.2591602895  MEMB      82              0.0000000000
     10912        88  POPS      C215           44.6327934582       12.1073022515       45.0319140565  MEMB      82              0.0000000000
     10913        88  POPS      H15R           43.5577519816       12.1395200003       44.7655299897  MEMB      82              0.0000000000
     10914        88  POPS      H15S           44.8907106072       13.1008408077       45.4678202674  MEMB      82              0.0000000000
     10915        88  POPS      C216           44.8438253085       11.0383601917       46.1188226542  MEMB      82              0.0000000000
     10916        88  POPS      H16R           45.1423896143       11.5659663489       47.0517437456  MEMB      82              0.0000000000
     10917        88  POPS      H16S           45.6957350103       10.3870642061       45.8403983738  MEMB      82              0.0000000000
     10918        88  POPS      C217           43.5963341204       10.2008627128       46.4614521680  MEMB      82              0.0000000000
     10919        88  POPS      H17R           43.8380642239        9.1260474908       46.3439665982  MEMB      82              0.0000000000
     10920        88  POPS      H17S           42.7768931692       10.4210439818       45.7441444614  MEMB      82              0.0000000000
     10921        88  POPS      C218           43.0885986778       10.3852682106       47.8962939323  MEMB      82              0.0000000000
     10922        88  POPS      H18R           43.8936216619       10.1566808502       48.6258214707  MEMB      82              0.0000000000
     10923        88  POPS      H18S           42.2323579089        9.7106772604       48.0973346598  MEMB      82              0.0000000000
     10924        88  POPS      H18T           42.7382839118       11.4203995012       48.0686943875  MEMB      82              0.0000000000
     10925        88  POPS      C33            44.4088808547        9.0846533742       32.3291044229  MEMB      82              0.0000000000
     10926        88  POPS      H3X            44.6186310642        9.9440823278       31.6502963865  MEMB      82              0.0000000000
     10927        88  POPS      H3Y            45.0232696881        8.2248229331       31.9793197008  MEMB      82              0.0000000000
     10928        88  POPS      C34            44.8657392489        9.4346166631       33.7518897553  MEMB      82              0.0000000000
     10929        88  POPS      H4X            44.2096205235       10.2360718456       34.1590104708  MEMB      82              0.0000000000
     10930        88  POPS      H4Y            45.8998266099        9.8470034256       33.7067767760  MEMB      82              0.0000000000
     10931        88  POPS      C35            44.8719740148        8.2299604858       34.7075156713  MEMB      82              0.0000000000
     10932        88  POPS      H5X            45.5128989770        7.4313104801       34.2710426513  MEMB      82              0.0000000000
     10933        88  POPS      H5Y            43.8434859234        7.8197614485       34.8149638090  MEMB      82              0.0000000000
     10934        88  POPS      C36            45.3923010789        8.5720072643       36.1119504777  MEMB      82              0.0000000000
     10935        88  POPS      H6X            46.4228283720        8.9853481837       36.0393641267  MEMB      82              0.0000000000
     10936        88  POPS      H6Y            45.4474349190        7.6297074044       36.7025036698  MEMB      82              0.0000000000
     10937        88  POPS      C37            44.4931842280        9.5667856967       36.8597259620  MEMB      82              0.0000000000
     10938        88  POPS      H7X            43.4448028761        9.1973957243       36.8120890525  MEMB      82              0.0000000000
     10939        88  POPS      H7Y            44.5248141790       10.5555789747       36.3483674061  MEMB      82              0.0000000000
     10940        88  POPS      C38            44.9035047489        9.7602232435       38.3268571006  MEMB      82              0.0000000000
     10941        88  POPS      H8X            45.9828561681       10.0346849675       38.3612070572  MEMB      82              0.0000000000
     10942        88  POPS      H8Y            44.7853295458        8.7974919338       38.8722740359  MEMB      82              0.0000000000
     10943        88  POPS      C39            44.0987924800       10.8585483443       39.0435305086  MEMB      82              0.0000000000
     10944        88  POPS      H9X            44.3067004225       11.8286596879       38.5372603536  MEMB      82              0.0000000000
     10945        88  POPS      H9Y            44.4542539601       10.9397142786       40.0949922927  MEMB      82              0.0000000000
     10946        88  POPS      C310           42.5818675681       10.6124872283       39.0509187057  MEMB      82              0.0000000000
     10947        88  POPS      H10X           42.3807052571        9.6281851457       39.5304267034  MEMB      82              0.0000000000
     10948        88  POPS      H10Y           42.2139479885       10.5608278254       38.0019377528  MEMB      82              0.0000000000
     10949        88  POPS      C311           41.7682755609       11.6988014913       39.7746142976  MEMB      82              0.0000000000
     10950        88  POPS      H11X           42.0348726256       11.6894918914       40.8534219715  MEMB      82              0.0000000000
     10951        88  POPS      H11Y           40.6890613137       11.4380723746       39.6889502654  MEMB      82              0.0000000000
     10952        88  POPS      C312           41.9795688960       13.1198957234       39.2221699608  MEMB      82              0.0000000000
     10953        88  POPS      H12X           42.0038866186       13.0854879955       38.1101603463  MEMB      82              0.0000000000
     10954        88  POPS      H12Y           42.9670036511       13.4890407187       39.5764995494  MEMB      82              0.0000000000
     10955        88  POPS      C313           40.8739974719       14.0957514432       39.6606803118  MEMB      82              0.0000000000
     10956        88  POPS      H13X           40.5909626416       13.8495997316       40.7022780492  MEMB      82              0.0000000000
     10957        88  POPS      H13Y           39.9803807358       13.9230318428       39.0188277619  MEMB      82              0.0000000000
     10958        88  POPS      C314           41.2644716621       15.5837300709       39.6070264714  MEMB      82              0.0000000000
     10959        88  POPS      H14X           40.3439341825       16.2087615328       39.5556578655  MEMB      82              0.0000000000
     10960        88  POPS      H14Y           41.8394833364       15.7632647340       38.6718027681  MEMB      82              0.0000000000
     10961        88  POPS      C315           42.0941200959       16.0483832552       40.8181312588  MEMB      82              0.0000000000
     10962        88  POPS      H15X           42.6232287264       16.9876853396       40.5348208455  MEMB      82              0.0000000000
     10963        88  POPS      H15Y           42.8723146864       15.2823802554       41.0386632835  MEMB      82              0.0000000000
     10964        88  POPS      C316           41.2843769304       16.3321646686       42.0877440292  MEMB      82              0.0000000000
     10965        88  POPS      H16X           40.7132637443       15.4387693849       42.4072016331  MEMB      82              0.0000000000
     10966        88  POPS      H16Y           40.5622710417       17.1583878855       41.9146081470  MEMB      82              0.0000000000
     10967        88  POPS      H16Z           41.9626152034       16.6213172190       42.9193235771  MEMB      82              0.0000000000
     10968        89  POPC      N              46.8593665367       47.9293655527       25.1014801308  MEMB      83              0.0000000000
     10969        89  POPC      C12            46.3793447960       48.9462543805       26.1177731703  MEMB      83              0.0000000000
     10970        89  POPC      H12A           45.4671266734       48.5777291774       26.5474884755  MEMB      83              0.0000000000
     10971        89  POPC      H12B           46.1609054051       49.8602188279       25.5743070740  MEMB      83              0.0000000000
     10972        89  POPC      C13            47.9559706749       48.5447635322       24.3048585699  MEMB      83              0.0000000000
     10973        89  POPC      H13A           48.5384134792       49.2164498186       24.9367938763  MEMB      83              0.0000000000
     10974        89  POPC      H13B           48.6216022978       47.7951928719       23.8945096977  MEMB      83              0.0000000000
     10975        89  POPC      H13C           47.5768545651       49.1277655358       23.4807975691  MEMB      83              0.0000000000
     10976        89  POPC      C14            47.4053499133       46.7249985300       25.7813552884  MEMB      83              0.0000000000
     10977        89  POPC      H14A           47.7394805577       46.0043747602       25.0476293546  MEMB      83              0.0000000000
     10978        89  POPC      H14B           48.2451652662       47.0184115560       26.4095338814  MEMB      83              0.0000000000
     10979        89  POPC      H14C           46.6906494493       46.2730357693       26.4532190088  MEMB      83              0.0000000000
     10980        89  POPC      C15            45.7901663713       47.4640145540       24.1504344937  MEMB      83              0.0000000000
     10981        89  POPC      H15A           46.2687801688       46.8058994355       23.4274580716  MEMB      83              0.0000000000
     10982        89  POPC      H15B           45.3374173448       48.2914079862       23.6067934046  MEMB      83              0.0000000000
     10983        89  POPC      H15C           45.0155029804       46.8935905371       24.6539857752  MEMB      83              0.0000000000
     10984        89  POPC      C11            47.3246328302       49.3573496361       27.2843160073  MEMB      83              0.0000000000
     10985        89  POPC      H11A           47.6667804368       48.4408381366       27.8130906842  MEMB      83              0.0000000000
     10986        89  POPC      H11B           46.7320663133       49.9382541552       28.0242406409  MEMB      83              0.0000000000
     10987        89  POPC      P              49.9184879401       49.9193552523       27.1219263414  MEMB      83              0.0000000000
     10988        89  POPC      O13            50.6055929596       51.0653835162       27.7494459593  MEMB      83              0.0000000000
     10989        89  POPC      O14            50.5345315495       49.4736711772       25.8469039082  MEMB      83              0.0000000000
     10990        89  POPC      O12            48.3847898211       50.1970495239       26.8387699131  MEMB      83              0.0000000000
     10991        89  POPC      O11            49.9520569284       48.6846946151       28.1085947258  MEMB      83              0.0000000000
     10992        89  POPC      C1             50.5368936748       47.4702221779       27.6261037584  MEMB      83              0.0000000000
     10993        89  POPC      HA             51.5335051384       47.6523961772       27.1600366874  MEMB      83              0.0000000000
     10994        89  POPC      HB             49.8869642492       47.0100262257       26.8538647378  MEMB      83              0.0000000000
     10995        89  POPC      C2             50.7603198229       46.4215030326       28.7468189617  MEMB      83              0.0000000000
     10996        89  POPC      HS             50.6589904578       45.4165737945       28.2802142430  MEMB      83              0.0000000000
     10997        89  POPC      O21            49.8358146677       46.5323631219       29.8370519503  MEMB      83              0.0000000000
     10998        89  POPC      C21            48.5562358973       46.4138525573       29.5859019388  MEMB      83              0.0000000000
     10999        89  POPC      O22            48.0492903441       46.0044764367       28.5516591798  MEMB      83              0.0000000000
     11000        89  POPC      C22            47.7761724772       46.6744411938       30.8648167254  MEMB      83              0.0000000000
     11001        89  POPC      H2R            48.1369293237       45.9580500826       31.6317398379  MEMB      83              0.0000000000
     11002        89  POPC      H2S            46.7183438005       46.4396678041       30.6407550617  MEMB      83              0.0000000000
     11003        89  POPC      C3             52.2205137424       46.5396004631       29.2990969985  MEMB      83              0.0000000000
     11004        89  POPC      HX             52.9173399362       46.4893078133       28.4349954142  MEMB      83              0.0000000000
     11005        89  POPC      HY             52.4529145714       45.6413934860       29.9132996325  MEMB      83              0.0000000000
     11006        89  POPC      O31            52.4611975382       47.7854205396       30.0084754539  MEMB      83              0.0000000000
     11007        89  POPC      C31            52.0144146440       47.7358320480       31.2751634136  MEMB      83              0.0000000000
     11008        89  POPC      O32            51.6417376905       46.7191472952       31.8290255315  MEMB      83              0.0000000000
     11009        89  POPC      C32            52.0873372217       49.1100908656       31.9379752731  MEMB      83              0.0000000000
     11010        89  POPC      H2X            51.7519991304       49.8782978180       31.2097044202  MEMB      83              0.0000000000
     11011        89  POPC      H2Y            53.1494389498       49.2857422604       32.1985402842  MEMB      83              0.0000000000
     11012        89  POPC      C23            47.8662530185       48.1047228397       31.4234821070  MEMB      83              0.0000000000
     11013        89  POPC      H3R            47.6578665250       48.8580343661       30.6308434755  MEMB      83              0.0000000000
     11014        89  POPC      H3S            48.8947101566       48.2963285280       31.7998652803  MEMB      83              0.0000000000
     11015        89  POPC      C24            46.8558042742       48.2688663365       32.5657675705  MEMB      83              0.0000000000
     11016        89  POPC      H4R            47.0910730324       47.5417442827       33.3742867017  MEMB      83              0.0000000000
     11017        89  POPC      H4S            45.8446972541       48.0199111716       32.1757188377  MEMB      83              0.0000000000
     11018        89  POPC      C25            46.8182448677       49.6831177175       33.1437460702  MEMB      83              0.0000000000
     11019        89  POPC      H5R            46.6402202328       50.3849841328       32.2996279907  MEMB      83              0.0000000000
     11020        89  POPC      H5S            47.8081365916       49.9190838523       33.5951056736  MEMB      83              0.0000000000
     11021        89  POPC      C26            45.7042085379       49.8776366659       34.1831727332  MEMB      83              0.0000000000
     11022        89  POPC      H6R            45.1639017737       48.9178483592       34.3330480656  MEMB      83              0.0000000000
     11023        89  POPC      H6S            44.9710711143       50.6061527918       33.7658227315  MEMB      83              0.0000000000
     11024        89  POPC      C27            46.1930933499       50.3846555295       35.5507213611  MEMB      83              0.0000000000
     11025        89  POPC      H7R            45.3926789743       51.0398544533       35.9618037812  MEMB      83              0.0000000000
     11026        89  POPC      H7S            47.1001478825       51.0146820496       35.4366480375  MEMB      83              0.0000000000
     11027        89  POPC      C28            46.4100753722       49.2654850868       36.5924162081  MEMB      83              0.0000000000
     11028        89  POPC      H8R            45.4469838122       48.7255714174       36.6895447718  MEMB      83              0.0000000000
     11029        89  POPC      H8S            46.5797370277       49.7467726099       37.5800676553  MEMB      83              0.0000000000
     11030        89  POPC      C29            47.5618189929       48.3362339465       36.2843391358  MEMB      83              0.0000000000
     11031        89  POPC      H91            48.5179799050       48.8481390613       36.1241034160  MEMB      83              0.0000000000
     11032        89  POPC      C210           47.5396225380       46.9927251380       36.1944376122  MEMB      83              0.0000000000
     11033        89  POPC      H101           48.4771269658       46.4631237260       35.9592395450  MEMB      83              0.0000000000
     11034        89  POPC      C211           46.3320480537       46.1139790549       36.3872989073  MEMB      83              0.0000000000
     11035        89  POPC      H11R           46.1577500389       45.5121319011       35.4669128065  MEMB      83              0.0000000000
     11036        89  POPC      H11S           45.4158265550       46.7211159530       36.5262129091  MEMB      83              0.0000000000
     11037        89  POPC      C212           46.4095357547       45.1498220169       37.5858602101  MEMB      83              0.0000000000
     11038        89  POPC      H12R           47.0776435039       44.3027980589       37.3320989013  MEMB      83              0.0000000000
     11039        89  POPC      H12S           45.3916924407       44.7264228601       37.7456604114  MEMB      83              0.0000000000
     11040        89  POPC      C213           46.9063244066       45.7627260075       38.9040197229  MEMB      83              0.0000000000
     11041        89  POPC      H13R           47.9650956091       46.0888304905       38.7962703858  MEMB      83              0.0000000000
     11042        89  POPC      H13S           46.8960978512       44.9477388899       39.6630157706  MEMB      83              0.0000000000
     11043        89  POPC      C214           46.0657855071       46.9455395720       39.4089970471  MEMB      83              0.0000000000
     11044        89  POPC      H14R           45.2212015212       47.1273673875       38.7061292699  MEMB      83              0.0000000000
     11045        89  POPC      H14S           46.6906133995       47.8665367077       39.4177444335  MEMB      83              0.0000000000
     11046        89  POPC      C215           45.4708322447       46.7055028253       40.8013793697  MEMB      83              0.0000000000
     11047        89  POPC      H15R           44.8512595938       45.7820048396       40.7517630417  MEMB      83              0.0000000000
     11048        89  POPC      H15S           44.7895193966       47.5456978467       41.0599605882  MEMB      83              0.0000000000
     11049        89  POPC      C216           46.5128768639       46.5475996675       41.9185676754  MEMB      83              0.0000000000
     11050        89  POPC      H16R           46.9892697208       47.5304214415       42.1306088102  MEMB      83              0.0000000000
     11051        89  POPC      H16S           47.3168059408       45.8489912588       41.5969515112  MEMB      83              0.0000000000
     11052        89  POPC      C217           45.8702153115       45.9788799366       43.1888359649  MEMB      83              0.0000000000
     11053        89  POPC      H17R           45.3091621006       45.0586014257       42.9104865276  MEMB      83              0.0000000000
     11054        89  POPC      H17S           45.1298669366       46.7129341831       43.5739711950  MEMB      83              0.0000000000
     11055        89  POPC      C218           46.8661282754       45.6310144568       44.2921220455  MEMB      83              0.0000000000
     11056        89  POPC      H18R           46.3489959148       45.1539325909       45.1517014213  MEMB      83              0.0000000000
     11057        89  POPC      H18S           47.3667911058       46.5485707924       44.6593037035  MEMB      83              0.0000000000
     11058        89  POPC      H18T           47.6409457743       44.9305343172       43.9116103044  MEMB      83              0.0000000000
     11059        89  POPC      C33            51.2040545430       49.1669111911       33.2112278060  MEMB      83              0.0000000000
     11060        89  POPC      H3X            51.0206763475       48.1494547989       33.6272418832  MEMB      83              0.0000000000
     11061        89  POPC      H3Y            50.2125511602       49.5831876983       32.9185473846  MEMB      83              0.0000000000
     11062        89  POPC      C34            51.7474636662       50.0099439634       34.3714914614  MEMB      83              0.0000000000
     11063        89  POPC      H4X            51.8842250836       51.0584537649       34.0273161033  MEMB      83              0.0000000000
     11064        89  POPC      H4Y            52.7339442805       49.6224589006       34.7058770450  MEMB      83              0.0000000000
     11065        89  POPC      C35            50.7345089313       49.9620822670       35.5300593111  MEMB      83              0.0000000000
     11066        89  POPC      H5X            50.6489716452       48.9186020707       35.9040716201  MEMB      83              0.0000000000
     11067        89  POPC      H5Y            49.7484711636       50.2391625147       35.0898690393  MEMB      83              0.0000000000
     11068        89  POPC      C36            51.0190070253       50.9061708727       36.7079226771  MEMB      83              0.0000000000
     11069        89  POPC      H6X            51.7785877546       51.6307368248       36.3437328440  MEMB      83              0.0000000000
     11070        89  POPC      H6Y            51.4773535282       50.3647861359       37.5600283753  MEMB      83              0.0000000000
     11071        89  POPC      C37            49.7818689139       51.7130444831       37.1603749983  MEMB      83              0.0000000000
     11072        89  POPC      H7X            49.1099189130       51.8719908371       36.2892347447  MEMB      83              0.0000000000
     11073        89  POPC      H7Y            50.1161642608       52.7143545288       37.4937308116  MEMB      83              0.0000000000
     11074        89  POPC      C38            48.9749270970       51.1393366923       38.3347552512  MEMB      83              0.0000000000
     11075        89  POPC      H8X            48.6435287319       50.1113597886       38.0829743072  MEMB      83              0.0000000000
     11076        89  POPC      H8Y            48.0619421564       51.7660897392       38.4644221580  MEMB      83              0.0000000000
     11077        89  POPC      C39            49.7320089257       51.1000152857       39.6703068942  MEMB      83              0.0000000000
     11078        89  POPC      H9X            49.1280262617       51.6127998123       40.4540514957  MEMB      83              0.0000000000
     11079        89  POPC      H9Y            50.6954413465       51.6481762460       39.5819887894  MEMB      83              0.0000000000
     11080        89  POPC      C310           49.9769672442       49.6547003438       40.1129486276  MEMB      83              0.0000000000
     11081        89  POPC      H10X           50.5546815080       49.1166460358       39.3290000593  MEMB      83              0.0000000000
     11082        89  POPC      H10Y           48.9841234008       49.1512204328       40.1815789877  MEMB      83              0.0000000000
     11083        89  POPC      C311           50.6986000326       49.5224501709       41.4571228544  MEMB      83              0.0000000000
     11084        89  POPC      H11X           50.8668407089       50.5204674047       41.9183124527  MEMB      83              0.0000000000
     11085        89  POPC      H11Y           51.6982312057       49.0641745070       41.2764572091  MEMB      83              0.0000000000
     11086        89  POPC      C312           49.9107124814       48.6381759835       42.4292055535  MEMB      83              0.0000000000
     11087        89  POPC      H12X           49.4573198960       47.7919655770       41.8630864464  MEMB      83              0.0000000000
     11088        89  POPC      H12Y           49.0790578399       49.2222591729       42.8822474998  MEMB      83              0.0000000000
     11089        89  POPC      C313           50.7915384965       48.0316754884       43.5206042176  MEMB      83              0.0000000000
     11090        89  POPC      H13X           51.3091184494       48.8418324148       44.0797720696  MEMB      83              0.0000000000
     11091        89  POPC      H13Y           51.5659220468       47.3972178163       43.0329685032  MEMB      83              0.0000000000
     11092        89  POPC      C314           49.9762799813       47.1695904628       44.4862876549  MEMB      83              0.0000000000
     11093        89  POPC      H14X           49.4246797017       46.4071246578       43.8956476111  MEMB      83              0.0000000000
     11094        89  POPC      H14Y           49.2297852973       47.8221341785       44.9926084440  MEMB      83              0.0000000000
     11095        89  POPC      C315           50.8260507962       46.4567392727       45.5394475734  MEMB      83              0.0000000000
     11096        89  POPC      H15X           50.3029552226       46.5086941202       46.5215969404  MEMB      83              0.0000000000
     11097        89  POPC      H15Y           51.7838217075       47.0059182543       45.6458153033  MEMB      83              0.0000000000
     11098        89  POPC      C316           51.1089304536       44.9919975049       45.2042131222  MEMB      83              0.0000000000
     11099        89  POPC      H16X           51.6056736984       44.9072411479       44.2139951342  MEMB      83              0.0000000000
     11100        89  POPC      H16Y           50.1638400978       44.4107086219       45.1718539913  MEMB      83              0.0000000000
     11101        89  POPC      H16Z           51.7737781470       44.5397791177       45.9688238838  MEMB      83              0.0000000000
     11102        90  POPC      N              40.1424764774       52.0529209865       27.2705134848  MEMB      84              0.0000000000
     11103        90  POPC      C12            41.1875528956       52.4145127888       26.2287889852  MEMB      84              0.0000000000
     11104        90  POPC      H12A           40.7342979689       52.3726917237       25.2428880196  MEMB      84              0.0000000000
     11105        90  POPC      H12B           41.9603868515       51.6618633462       26.2342548005  MEMB      84              0.0000000000
     11106        90  POPC      C13            38.9160760053       52.8544024085       26.9522344114  MEMB      84              0.0000000000
     11107        90  POPC      H13A           39.2077080195       53.8885836143       26.7466600686  MEMB      84              0.0000000000
     11108        90  POPC      H13B           38.4236380811       52.4318556656       26.0804178042  MEMB      84              0.0000000000
     11109        90  POPC      H13C           38.1833446192       52.8196334403       27.7447159168  MEMB      84              0.0000000000
     11110        90  POPC      C14            39.7503518665       50.6168658652       27.1885673776  MEMB      84              0.0000000000
     11111        90  POPC      H14A           38.9217352943       50.4066909134       27.8717729814  MEMB      84              0.0000000000
     11112        90  POPC      H14B           39.2780600540       50.4111503470       26.2226777414  MEMB      84              0.0000000000
     11113        90  POPC      H14C           40.5469390089       49.9314200268       27.4004245748  MEMB      84              0.0000000000
     11114        90  POPC      C15            40.6363229784       52.3831573115       28.6381719034  MEMB      84              0.0000000000
     11115        90  POPC      H15A           41.5512041715       51.8539107406       28.8809434351  MEMB      84              0.0000000000
     11116        90  POPC      H15B           39.9017904213       52.1693426212       29.4061784512  MEMB      84              0.0000000000
     11117        90  POPC      H15C           40.8816351965       53.4436503463       28.6557891436  MEMB      84              0.0000000000
     11118        90  POPC      C11            41.9215636803       53.7880332057       26.3269076192  MEMB      84              0.0000000000
     11119        90  POPC      H11A           42.5359962207       53.8008651096       25.3845555312  MEMB      84              0.0000000000
     11120        90  POPC      H11B           42.6446311053       53.7638664670       27.1699797117  MEMB      84              0.0000000000
     11121        90  POPC      P              41.6505886822       56.2486363687       25.6845070910  MEMB      84              0.0000000000
     11122        90  POPC      O13            41.0582200332       57.5019348042       26.2148564973  MEMB      84              0.0000000000
     11123        90  POPC      O14            41.5235858055       55.9486486769       24.2363268087  MEMB      84              0.0000000000
     11124        90  POPC      O12            41.0733727163       54.9571623076       26.4673115649  MEMB      84              0.0000000000
     11125        90  POPC      O11            43.1880062631       56.1627105506       26.0172431272  MEMB      84              0.0000000000
     11126        90  POPC      C1             43.8069909536       56.9875234380       26.9956697824  MEMB      84              0.0000000000
     11127        90  POPC      HA             43.2629202566       57.9447021141       27.1695704392  MEMB      84              0.0000000000
     11128        90  POPC      HB             44.8135165773       57.2470454797       26.6015263172  MEMB      84              0.0000000000
     11129        90  POPC      C2             43.9871536078       56.2403940027       28.3390427582  MEMB      84              0.0000000000
     11130        90  POPC      HS             44.4506087703       55.2559959917       28.0876527667  MEMB      84              0.0000000000
     11131        90  POPC      O21            42.7142680038       56.1134726437       29.0041884385  MEMB      84              0.0000000000
     11132        90  POPC      C21            42.6047730159       55.0103827636       29.7118300940  MEMB      84              0.0000000000
     11133        90  POPC      O22            43.3003958239       54.0087858670       29.6294060088  MEMB      84              0.0000000000
     11134        90  POPC      C22            41.4506219738       55.1534346971       30.7092714109  MEMB      84              0.0000000000
     11135        90  POPC      H2R            40.9566395585       54.1648573167       30.7895910367  MEMB      84              0.0000000000
     11136        90  POPC      H2S            40.7180173446       55.8955183856       30.3360595346  MEMB      84              0.0000000000
     11137        90  POPC      C3             44.9547803681       57.0188658651       29.2650106101  MEMB      84              0.0000000000
     11138        90  POPC      HX             44.5729516202       58.0600840537       29.3405160467  MEMB      84              0.0000000000
     11139        90  POPC      HY             45.9413664110       57.0511578119       28.7503355684  MEMB      84              0.0000000000
     11140        90  POPC      O31            45.0660118085       56.4002922945       30.5656212624  MEMB      84              0.0000000000
     11141        90  POPC      C31            45.7396033244       57.1402044015       31.4490861703  MEMB      84              0.0000000000
     11142        90  POPC      O32            46.0222847988       58.3199554386       31.3044728138  MEMB      84              0.0000000000
     11143        90  POPC      C32            46.1740656664       56.2457010260       32.6206203371  MEMB      84              0.0000000000
     11144        90  POPC      H2X            47.2821069666       56.2032242383       32.5755203355  MEMB      84              0.0000000000
     11145        90  POPC      H2Y            45.7732692338       55.2245622373       32.4570735800  MEMB      84              0.0000000000
     11146        90  POPC      C23            41.9898478097       55.5436767183       32.1010968897  MEMB      84              0.0000000000
     11147        90  POPC      H3R            42.2627293485       56.6162343567       32.0884643755  MEMB      84              0.0000000000
     11148        90  POPC      H3S            42.9214610486       54.9648437896       32.3171904548  MEMB      84              0.0000000000
     11149        90  POPC      C24            41.0176322697       55.2810832522       33.2589124432  MEMB      84              0.0000000000
     11150        90  POPC      H4R            41.5904167729       55.4431655772       34.1965384189  MEMB      84              0.0000000000
     11151        90  POPC      H4S            40.7070679177       54.2139542868       33.2519738935  MEMB      84              0.0000000000
     11152        90  POPC      C25            39.7744840515       56.1884352039       33.2791127539  MEMB      84              0.0000000000
     11153        90  POPC      H5R            39.1567713732       55.9661134944       32.3812971307  MEMB      84              0.0000000000
     11154        90  POPC      H5S            40.0869786249       57.2542280887       33.2206980210  MEMB      84              0.0000000000
     11155        90  POPC      C26            38.9079545962       55.9903834591       34.5361303327  MEMB      84              0.0000000000
     11156        90  POPC      H6R            38.6891426044       54.9018964570       34.6287084345  MEMB      84              0.0000000000
     11157        90  POPC      H6S            37.9361679729       56.5170321011       34.4043639070  MEMB      84              0.0000000000
     11158        90  POPC      C27            39.5630289215       56.4891316362       35.8375364337  MEMB      84              0.0000000000
     11159        90  POPC      H7R            39.5630491496       57.6015909544       35.8606430006  MEMB      84              0.0000000000
     11160        90  POPC      H7S            40.6328747624       56.1854632357       35.8453223736  MEMB      84              0.0000000000
     11161        90  POPC      C28            38.9262647847       55.8784841252       37.1072370029  MEMB      84              0.0000000000
     11162        90  POPC      H8R            39.7518434131       55.4210251898       37.6982272453  MEMB      84              0.0000000000
     11163        90  POPC      H8S            38.2761656168       55.0279557490       36.8080835063  MEMB      84              0.0000000000
     11164        90  POPC      C29            38.1278451635       56.8539057963       37.9363629529  MEMB      84              0.0000000000
     11165        90  POPC      H91            37.2103129969       57.2301905037       37.4580843873  MEMB      84              0.0000000000
     11166        90  POPC      C210           38.4621607102       57.3282898656       39.1512076447  MEMB      84              0.0000000000
     11167        90  POPC      H101           37.7844053669       58.0484674515       39.6380004361  MEMB      84              0.0000000000
     11168        90  POPC      C211           39.7075825671       56.9800848455       39.9330004804  MEMB      84              0.0000000000
     11169        90  POPC      H11R           40.0362330773       55.9425522674       39.7060029440  MEMB      84              0.0000000000
     11170        90  POPC      H11S           39.4954401249       56.9949259155       41.0248293700  MEMB      84              0.0000000000
     11171        90  POPC      C212           40.8811153317       57.9442144939       39.6448584786  MEMB      84              0.0000000000
     11172        90  POPC      H12R           40.6860029642       58.9082670652       40.1668028556  MEMB      84              0.0000000000
     11173        90  POPC      H12S           40.9517116997       58.1610274745       38.5542798194  MEMB      84              0.0000000000
     11174        90  POPC      C213           42.2388337147       57.3946307610       40.1188197643  MEMB      84              0.0000000000
     11175        90  POPC      H13R           42.0928170020       56.9455590038       41.1237229121  MEMB      84              0.0000000000
     11176        90  POPC      H13S           42.9650410489       58.2322516082       40.2251617595  MEMB      84              0.0000000000
     11177        90  POPC      C214           42.8248806923       56.3628943875       39.1404349391  MEMB      84              0.0000000000
     11178        90  POPC      H14R           43.1245992092       56.8875730758       38.2057106209  MEMB      84              0.0000000000
     11179        90  POPC      H14S           42.0207358766       55.6464090592       38.8692733183  MEMB      84              0.0000000000
     11180        90  POPC      C215           44.0223303512       55.5526731971       39.6722442828  MEMB      84              0.0000000000
     11181        90  POPC      H15R           44.8666974003       56.2292475969       39.9151545320  MEMB      84              0.0000000000
     11182        90  POPC      H15S           44.3697195371       54.8720000208       38.8621734331  MEMB      84              0.0000000000
     11183        90  POPC      C216           43.6707630140       54.6850303293       40.8909024844  MEMB      84              0.0000000000
     11184        90  POPC      H16R           42.7970648045       54.0544162307       40.6323897107  MEMB      84              0.0000000000
     11185        90  POPC      H16S           43.3559491761       55.3248290204       41.7404556813  MEMB      84              0.0000000000
     11186        90  POPC      C217           44.8034530882       53.7628326893       41.3613591921  MEMB      84              0.0000000000
     11187        90  POPC      H17R           45.6525238441       53.8233519918       40.6449332742  MEMB      84              0.0000000000
     11188        90  POPC      H17S           44.4325504951       52.7119950933       41.3445112659  MEMB      84              0.0000000000
     11189        90  POPC      C218           45.2886449632       54.0924927751       42.7736344666  MEMB      84              0.0000000000
     11190        90  POPC      H18R           45.7028584182       55.1228298129       42.8062220685  MEMB      84              0.0000000000
     11191        90  POPC      H18S           46.0770658818       53.3818545285       43.0993455437  MEMB      84              0.0000000000
     11192        90  POPC      H18T           44.4462280899       54.0393741987       43.4960875717  MEMB      84              0.0000000000
     11193        90  POPC      C33            45.7430957808       56.7697387980       34.0087723355  MEMB      84              0.0000000000
     11194        90  POPC      H3X            44.6355487664       56.7899429145       34.0671822267  MEMB      84              0.0000000000
     11195        90  POPC      H3Y            46.1121981445       57.8169398273       34.1148338352  MEMB      84              0.0000000000
     11196        90  POPC      C34            46.2886665665       55.9495675144       35.1925444816  MEMB      84              0.0000000000
     11197        90  POPC      H4X            46.1041502408       56.5289384448       36.1267077818  MEMB      84              0.0000000000
     11198        90  POPC      H4Y            47.3892968575       55.8559302339       35.0815553518  MEMB      84              0.0000000000
     11199        90  POPC      C35            45.6564409619       54.5565890821       35.3662903473  MEMB      84              0.0000000000
     11200        90  POPC      H5X            46.2039199795       54.0192881398       36.1770746516  MEMB      84              0.0000000000
     11201        90  POPC      H5Y            45.7691474120       53.9635409447       34.4331626783  MEMB      84              0.0000000000
     11202        90  POPC      C36            44.1707166362       54.6189761881       35.7561850293  MEMB      84              0.0000000000
     11203        90  POPC      H6X            43.5871587261       55.0886316264       34.9376221563  MEMB      84              0.0000000000
     11204        90  POPC      H6Y            44.0623735455       55.2660164230       36.6554327653  MEMB      84              0.0000000000
     11205        90  POPC      C37            43.5621790739       53.2438576399       36.0705307076  MEMB      84              0.0000000000
     11206        90  POPC      H7X            44.2463721921       52.7114242743       36.7693664665  MEMB      84              0.0000000000
     11207        90  POPC      H7Y            43.4806988369       52.6433967433       35.1374939405  MEMB      84              0.0000000000
     11208        90  POPC      C38            42.1888624980       53.3507764423       36.7522134415  MEMB      84              0.0000000000
     11209        90  POPC      H8X            41.4769562224       53.9087595799       36.1053294022  MEMB      84              0.0000000000
     11210        90  POPC      H8Y            42.3322313860       53.9405622535       37.6808247033  MEMB      84              0.0000000000
     11211        90  POPC      C39            41.5885650604       51.9847602404       37.1108700497  MEMB      84              0.0000000000
     11212        90  POPC      H9X            42.3916830568       51.3373544970       37.5311346435  MEMB      84              0.0000000000
     11213        90  POPC      H9Y            41.2257350279       51.5098646023       36.1712391021  MEMB      84              0.0000000000
     11214        90  POPC      C310           40.4412384417       52.0334354928       38.1381941778  MEMB      84              0.0000000000
     11215        90  POPC      H10X           40.0198819379       51.0082400444       38.2516408230  MEMB      84              0.0000000000
     11216        90  POPC      H10Y           39.6357829394       52.6973640510       37.7594023605  MEMB      84              0.0000000000
     11217        90  POPC      C311           40.8965665358       52.5329335892       39.5162837882  MEMB      84              0.0000000000
     11218        90  POPC      H11X           41.1379502564       53.6150396452       39.4328928385  MEMB      84              0.0000000000
     11219        90  POPC      H11Y           41.8247164906       51.9881374966       39.7960771679  MEMB      84              0.0000000000
     11220        90  POPC      C312           39.8597616977       52.3765250598       40.6391776432  MEMB      84              0.0000000000
     11221        90  POPC      H12X           39.5291631834       51.3163704739       40.7018998068  MEMB      84              0.0000000000
     11222        90  POPC      H12Y           38.9723958646       52.9983358050       40.3803256964  MEMB      84              0.0000000000
     11223        90  POPC      C313           40.4001193327       52.8242303548       42.0114551064  MEMB      84              0.0000000000
     11224        90  POPC      H13X           39.5493866765       52.9314583560       42.7182828652  MEMB      84              0.0000000000
     11225        90  POPC      H13Y           40.8610894739       53.8312061486       41.9117508975  MEMB      84              0.0000000000
     11226        90  POPC      C314           41.4280281186       51.8435845461       42.6024986180  MEMB      84              0.0000000000
     11227        90  POPC      H14X           42.3098526432       51.8087353712       41.9250816885  MEMB      84              0.0000000000
     11228        90  POPC      H14Y           40.9935014090       50.8192649157       42.6246278534  MEMB      84              0.0000000000
     11229        90  POPC      C315           41.9138203075       52.2135682689       44.0137707979  MEMB      84              0.0000000000
     11230        90  POPC      H15X           41.6420168251       53.2694712048       44.2361398033  MEMB      84              0.0000000000
     11231        90  POPC      H15Y           43.0273825758       52.1588461670       44.0221097079  MEMB      84              0.0000000000
     11232        90  POPC      C316           41.3827653270       51.2919395947       45.1183226850  MEMB      84              0.0000000000
     11233        90  POPC      H16X           40.2826214497       51.3987672824       45.2272600664  MEMB      84              0.0000000000
     11234        90  POPC      H16Y           41.8601007874       51.5319552749       46.0913752834  MEMB      84              0.0000000000
     11235        90  POPC      H16Z           41.6104415750       50.2308109767       44.8780982497  MEMB      84              0.0000000000
     11236        91  POPC      N              35.4648789946        9.6304364239       24.3613600189  MEMB      85              0.0000000000
     11237        91  POPC      C12            36.3706821387        9.8745947937       25.5606642477  MEMB      85              0.0000000000
     11238        91  POPC      H12A           37.0515289784       10.6836146133       25.3189734888  MEMB      85              0.0000000000
     11239        91  POPC      H12B           36.9663344280        8.9942794339       25.7673159835  MEMB      85              0.0000000000
     11240        91  POPC      C13            34.6004287408       10.8331044811       24.1364653897  MEMB      85              0.0000000000
     11241        91  POPC      H13A           33.8992062082       10.6914571583       23.3285420614  MEMB      85              0.0000000000
     11242        91  POPC      H13B           34.0889332527       11.0906815482       25.0636043913  MEMB      85              0.0000000000
     11243        91  POPC      H13C           35.2117592268       11.7064280441       23.9098402611  MEMB      85              0.0000000000
     11244        91  POPC      C14            36.2675573745        9.4529452329       23.1089135686  MEMB      85              0.0000000000
     11245        91  POPC      H14A           35.6153608477        9.3566987168       22.2444623084  MEMB      85              0.0000000000
     11246        91  POPC      H14B           36.9066712597       10.3111582379       22.8752237214  MEMB      85              0.0000000000
     11247        91  POPC      H14C           36.9103785990        8.5862310212       23.1660723588  MEMB      85              0.0000000000
     11248        91  POPC      C15            34.6160244374        8.4258765988       24.5959770412  MEMB      85              0.0000000000
     11249        91  POPC      H15A           33.9171784314        8.2708409347       23.7810865725  MEMB      85              0.0000000000
     11250        91  POPC      H15B           34.0582316085        8.5525653993       25.5161071584  MEMB      85              0.0000000000
     11251        91  POPC      H15C           35.2386609244        7.5382049272       24.6969149102  MEMB      85              0.0000000000
     11252        91  POPC      C11            35.6893670122       10.3074865705       26.8759971413  MEMB      85              0.0000000000
     11253        91  POPC      H11A           36.4593494600       10.2745566137       27.6859609654  MEMB      85              0.0000000000
     11254        91  POPC      H11B           34.8754394104        9.6011797022       27.1577121022  MEMB      85              0.0000000000
     11255        91  POPC      P              34.6345593844       12.3859035471       28.0105613191  MEMB      85              0.0000000000
     11256        91  POPC      O13            33.6276884453       11.4647958220       28.5984297684  MEMB      85              0.0000000000
     11257        91  POPC      O14            34.2120818004       13.7470058024       27.6270261833  MEMB      85              0.0000000000
     11258        91  POPC      O12            35.1727286184       11.6265869858       26.7147399731  MEMB      85              0.0000000000
     11259        91  POPC      O11            35.9318984966       12.4226954036       28.9170994951  MEMB      85              0.0000000000
     11260        91  POPC      C1             36.0788782758       13.3027541989       30.0170039983  MEMB      85              0.0000000000
     11261        91  POPC      HA             35.1351883227       13.3815889311       30.6049613219  MEMB      85              0.0000000000
     11262        91  POPC      HB             36.3628749874       14.3181634201       29.6533586194  MEMB      85              0.0000000000
     11263        91  POPC      C2             37.1792897279       12.7614168330       30.9632220628  MEMB      85              0.0000000000
     11264        91  POPC      HS             38.1363099800       12.7189515235       30.3943612382  MEMB      85              0.0000000000
     11265        91  POPC      O21            36.7936203621       11.4682609852       31.4582882402  MEMB      85              0.0000000000
     11266        91  POPC      C21            37.0615381810       10.4374604067       30.6846819937  MEMB      85              0.0000000000
     11267        91  POPC      O22            37.8918876715       10.4165401570       29.7917962766  MEMB      85              0.0000000000
     11268        91  POPC      C22            36.2944630503        9.1918203788       31.1478122326  MEMB      85              0.0000000000
     11269        91  POPC      H2R            37.0122220608        8.5622371689       31.7074154257  MEMB      85              0.0000000000
     11270        91  POPC      H2S            35.9971066363        8.6473426011       30.2265781821  MEMB      85              0.0000000000
     11271        91  POPC      C3             37.3938323254       13.6772483320       32.1900287332  MEMB      85              0.0000000000
     11272        91  POPC      HX             37.8622018318       14.6312724490       31.8724695473  MEMB      85              0.0000000000
     11273        91  POPC      HY             38.1208215155       13.1378298652       32.8452965836  MEMB      85              0.0000000000
     11274        91  POPC      O31            36.1336124279       13.9229653856       32.8561124671  MEMB      85              0.0000000000
     11275        91  POPC      C31            36.2682741296       14.2596591358       34.1330646084  MEMB      85              0.0000000000
     11276        91  POPC      O32            37.3354536700       14.4505379898       34.6893484634  MEMB      85              0.0000000000
     11277        91  POPC      C32            34.9027692114       14.2739356753       34.8185840045  MEMB      85              0.0000000000
     11278        91  POPC      H2X            34.8570020866       13.3243146410       35.3833309568  MEMB      85              0.0000000000
     11279        91  POPC      H2Y            34.0875595040       14.2792120450       34.0686636538  MEMB      85              0.0000000000
     11280        91  POPC      C23            35.0466462038        9.4393657964       32.0322683439  MEMB      85              0.0000000000
     11281        91  POPC      H3R            34.5581250871        8.4530870747       32.2051466997  MEMB      85              0.0000000000
     11282        91  POPC      H3S            34.3152565215       10.0861341525       31.4951198778  MEMB      85              0.0000000000
     11283        91  POPC      C24            35.3977015928       10.0495518589       33.3952834836  MEMB      85              0.0000000000
     11284        91  POPC      H4R            35.2194163540       11.1491537040       33.3354047670  MEMB      85              0.0000000000
     11285        91  POPC      H4S            36.4860261649        9.9167577894       33.5934592943  MEMB      85              0.0000000000
     11286        91  POPC      C25            34.6191301217        9.4835256284       34.5841077171  MEMB      85              0.0000000000
     11287        91  POPC      H5R            34.9309506087        8.4361292259       34.7876465635  MEMB      85              0.0000000000
     11288        91  POPC      H5S            33.5294041469        9.4846118243       34.3511050213  MEMB      85              0.0000000000
     11289        91  POPC      C26            34.8741328041       10.3596329502       35.8126954915  MEMB      85              0.0000000000
     11290        91  POPC      H6R            34.5592472899       11.3854569395       35.5325122477  MEMB      85              0.0000000000
     11291        91  POPC      H6S            35.9578688281       10.3856217557       36.0611851881  MEMB      85              0.0000000000
     11292        91  POPC      C27            34.0552018992        9.9769941993       37.0416653372  MEMB      85              0.0000000000
     11293        91  POPC      H7R            34.3762250490        8.9822722929       37.4227066755  MEMB      85              0.0000000000
     11294        91  POPC      H7S            32.9980691975        9.8975482127       36.7025638665  MEMB      85              0.0000000000
     11295        91  POPC      C28            34.1521363389       11.0458088429       38.1471884146  MEMB      85              0.0000000000
     11296        91  POPC      H8R            33.9013188468       12.0226197327       37.6846679456  MEMB      85              0.0000000000
     11297        91  POPC      H8S            35.2062587382       11.1119913892       38.4944698630  MEMB      85              0.0000000000
     11298        91  POPC      C29            33.1910451330       10.7725381794       39.2745633618  MEMB      85              0.0000000000
     11299        91  POPC      H91            32.1322993167       10.8010834784       38.9753784460  MEMB      85              0.0000000000
     11300        91  POPC      C210           33.4849979280       10.5307576292       40.5650092842  MEMB      85              0.0000000000
     11301        91  POPC      H101           32.6612142229       10.3289378868       41.2676579488  MEMB      85              0.0000000000
     11302        91  POPC      C211           34.8636113901       10.4881515922       41.1644927100  MEMB      85              0.0000000000
     11303        91  POPC      H11R           34.7965822400       10.5695836167       42.2714071002  MEMB      85              0.0000000000
     11304        91  POPC      H11S           35.4131938912       11.3904358342       40.8242248995  MEMB      85              0.0000000000
     11305        91  POPC      C212           35.7200475740        9.2626258740       40.7889486668  MEMB      85              0.0000000000
     11306        91  POPC      H12R           36.7662216174        9.4599903442       41.1187912962  MEMB      85              0.0000000000
     11307        91  POPC      H12S           35.7439580770        9.1420126816       39.6823726036  MEMB      85              0.0000000000
     11308        91  POPC      C213           35.2711988181        7.9361054758       41.4190563353  MEMB      85              0.0000000000
     11309        91  POPC      H13R           35.9815007911        7.1491412540       41.0730664002  MEMB      85              0.0000000000
     11310        91  POPC      H13S           34.2615321333        7.6624205504       41.0455630714  MEMB      85              0.0000000000
     11311        91  POPC      C214           35.2728041498        7.9507930078       42.9530165652  MEMB      85              0.0000000000
     11312        91  POPC      H14R           34.3220471174        8.3951415755       43.3213116976  MEMB      85              0.0000000000
     11313        91  POPC      H14S           36.1114246738        8.5995393643       43.2974085984  MEMB      85              0.0000000000
     11314        91  POPC      C215           35.4822860597        6.5545077219       43.5593919861  MEMB      85              0.0000000000
     11315        91  POPC      H15R           36.4086988465        6.1311960229       43.1099795015  MEMB      85              0.0000000000
     11316        91  POPC      H15S           34.6275374504        5.8936417499       43.2954567452  MEMB      85              0.0000000000
     11317        91  POPC      C216           35.6565574078        6.5948610813       45.0800195954  MEMB      85              0.0000000000
     11318        91  POPC      H16R           34.6858666158        6.8729574510       45.5442655296  MEMB      85              0.0000000000
     11319        91  POPC      H16S           36.4049558067        7.3854452678       45.3145514080  MEMB      85              0.0000000000
     11320        91  POPC      C217           36.1693304497        5.3017574575       45.7157946311  MEMB      85              0.0000000000
     11321        91  POPC      H17R           37.1654661268        5.0714669308       45.2741276347  MEMB      85              0.0000000000
     11322        91  POPC      H17S           35.4787189874        4.4595151466       45.4838014187  MEMB      85              0.0000000000
     11323        91  POPC      C218           36.3526427885        5.4242914611       47.2281375361  MEMB      85              0.0000000000
     11324        91  POPC      H18R           36.8920461418        6.3613269066       47.4735743263  MEMB      85              0.0000000000
     11325        91  POPC      H18S           36.9500267175        4.5729924383       47.6119406834  MEMB      85              0.0000000000
     11326        91  POPC      H18T           35.3774209545        5.4434232443       47.7553181965  MEMB      85              0.0000000000
     11327        91  POPC      C33            34.7143823948       15.4058125098       35.8530967245  MEMB      85              0.0000000000
     11328        91  POPC      H3X            34.3204988002       16.3180245770       35.3538181855  MEMB      85              0.0000000000
     11329        91  POPC      H3Y            35.6926510727       15.6616394943       36.3249667246  MEMB      85              0.0000000000
     11330        91  POPC      C34            33.7747177571       14.9503705206       36.9798056610  MEMB      85              0.0000000000
     11331        91  POPC      H4X            34.2473426936       14.0696724672       37.4660659175  MEMB      85              0.0000000000
     11332        91  POPC      H4Y            32.8005237549       14.6317900221       36.5481076381  MEMB      85              0.0000000000
     11333        91  POPC      C35            33.5332102363       16.0194262789       38.0466616119  MEMB      85              0.0000000000
     11334        91  POPC      H5X            33.0981942728       16.9218312376       37.5587877387  MEMB      85              0.0000000000
     11335        91  POPC      H5Y            34.5166708046       16.3007052429       38.4867006586  MEMB      85              0.0000000000
     11336        91  POPC      C36            32.6092876053       15.5584564583       39.1880696141  MEMB      85              0.0000000000
     11337        91  POPC      H6X            31.6294318046       15.2413330745       38.7671449182  MEMB      85              0.0000000000
     11338        91  POPC      H6Y            32.4260759366       16.4321655908       39.8525053932  MEMB      85              0.0000000000
     11339        91  POPC      C37            33.2100750043       14.4147072433       40.0227585815  MEMB      85              0.0000000000
     11340        91  POPC      H7X            34.1863486964       14.7459880925       40.4338233963  MEMB      85              0.0000000000
     11341        91  POPC      H7Y            33.4158077161       13.5533401067       39.3551823127  MEMB      85              0.0000000000
     11342        91  POPC      C38            32.3094761673       13.8928537809       41.1555560702  MEMB      85              0.0000000000
     11343        91  POPC      H8X            32.7619289622       12.9687135256       41.5759080737  MEMB      85              0.0000000000
     11344        91  POPC      H8Y            31.3228106732       13.6152853853       40.7214362274  MEMB      85              0.0000000000
     11345        91  POPC      C39            32.0965013321       14.8831816517       42.3033667746  MEMB      85              0.0000000000
     11346        91  POPC      H9X            31.2957123018       14.5059360916       42.9772048906  MEMB      85              0.0000000000
     11347        91  POPC      H9Y            31.7468311432       15.8322906298       41.8639261096  MEMB      85              0.0000000000
     11348        91  POPC      C310           33.3412684684       15.1984812905       43.1419284934  MEMB      85              0.0000000000
     11349        91  POPC      H10X           33.0801877844       16.0643285131       43.7897846116  MEMB      85              0.0000000000
     11350        91  POPC      H10Y           34.1925391553       15.5011592529       42.4981465648  MEMB      85              0.0000000000
     11351        91  POPC      C311           33.7349966087       14.0519952448       44.0711044808  MEMB      85              0.0000000000
     11352        91  POPC      H11X           33.9135927852       13.1255491083       43.4905731172  MEMB      85              0.0000000000
     11353        91  POPC      H11Y           32.8441681539       13.8605440854       44.7144982542  MEMB      85              0.0000000000
     11354        91  POPC      C312           34.9234089983       14.3834380130       44.9905609515  MEMB      85              0.0000000000
     11355        91  POPC      H12X           34.9249721455       13.6933597458       45.8578527350  MEMB      85              0.0000000000
     11356        91  POPC      H12Y           34.7708681387       15.3993312000       45.4156135055  MEMB      85              0.0000000000
     11357        91  POPC      C313           36.3325334602       14.3132785904       44.3751625332  MEMB      85              0.0000000000
     11358        91  POPC      H13X           37.0451913219       14.1977624996       45.2223239207  MEMB      85              0.0000000000
     11359        91  POPC      H13Y           36.5463480344       15.2917433613       43.8939906819  MEMB      85              0.0000000000
     11360        91  POPC      C314           36.6206561489       13.1715550364       43.3854431953  MEMB      85              0.0000000000
     11361        91  POPC      H14X           35.8253559716       12.4003487018       43.4210978071  MEMB      85              0.0000000000
     11362        91  POPC      H14Y           37.5652978303       12.6630187276       43.6870467641  MEMB      85              0.0000000000
     11363        91  POPC      C315           36.8013036994       13.6790012947       41.9504121180  MEMB      85              0.0000000000
     11364        91  POPC      H15X           35.9162087722       14.2879066949       41.6667406298  MEMB      85              0.0000000000
     11365        91  POPC      H15Y           36.8495602932       12.8087560316       41.2597174434  MEMB      85              0.0000000000
     11366        91  POPC      C316           38.0744293688       14.5010740681       41.7571783593  MEMB      85              0.0000000000
     11367        91  POPC      H16X           38.1009735395       15.3875823445       42.4239805290  MEMB      85              0.0000000000
     11368        91  POPC      H16Y           38.1601525877       14.8533041066       40.7072107247  MEMB      85              0.0000000000
     11369        91  POPC      H16Z           38.9539906360       13.8685566124       41.9955686490  MEMB      85              0.0000000000
     11370        92  POPS      N              54.5226895746       36.0577588326       23.8093613952  MEMB      86              0.0000000000
     11371        92  POPS      HN1            54.4139880778       35.1824481191       23.2638903799  MEMB      86              0.0000000000
     11372        92  POPS      HN2            54.2433516266       36.8779814636       23.2183070503  MEMB      86              0.0000000000
     11373        92  POPS      HN3            55.4955108424       36.1441558419       24.1708653610  MEMB      86              0.0000000000
     11374        92  POPS      C12            53.5355439076       36.0841063701       24.9276216744  MEMB      86              0.0000000000
     11375        92  POPS      H12A           52.9551841907       35.1728356154       24.8945129137  MEMB      86              0.0000000000
     11376        92  POPS      C13            52.5425120713       37.2475279471       24.6924079077  MEMB      86              0.0000000000
     11377        92  POPS      O13A           52.7135975297       38.0391352247       23.7199789127  MEMB      86              0.0000000000
     11378        92  POPS      O13B           51.5437448202       37.3215896108       25.4519744982  MEMB      86              0.0000000000
     11379        92  POPS      C11            54.2681616111       36.1564956869       26.3113478235  MEMB      86              0.0000000000
     11380        92  POPS      H11A           53.7576594581       36.9195506350       26.9401204307  MEMB      86              0.0000000000
     11381        92  POPS      H11B           55.3276978800       36.4863933213       26.2188195653  MEMB      86              0.0000000000
     11382        92  POPS      P              54.9041733115       33.6005750973       26.5355658942  MEMB      86              0.0000000000
     11383        92  POPS      O13            55.8022300619       33.9499798684       25.4093069856  MEMB      86              0.0000000000
     11384        92  POPS      O14            53.8678111287       32.5922863659       26.1876859349  MEMB      86              0.0000000000
     11385        92  POPS      O12            54.1939468076       34.9220394076       27.0144774064  MEMB      86              0.0000000000
     11386        92  POPS      O11            55.7830902953       33.1903886693       27.7808337578  MEMB      86              0.0000000000
     11387        92  POPS      C1             57.2108948164       33.3242703967       27.7900233785  MEMB      86              0.0000000000
     11388        92  POPS      HA             57.6565664351       33.7275952059       26.8498617446  MEMB      86              0.0000000000
     11389        92  POPS      HB             57.6410285086       32.3029791074       27.9081450087  MEMB      86              0.0000000000
     11390        92  POPS      C2             57.7671148437       34.1794681995       28.9784886052  MEMB      86              0.0000000000
     11391        92  POPS      HS             58.7305590838       33.7112207255       29.2704565864  MEMB      86              0.0000000000
     11392        92  POPS      O21            56.8981481126       34.2328450199       30.1194986397  MEMB      86              0.0000000000
     11393        92  POPS      C21            56.5459499838       33.0830052530       30.6353132733  MEMB      86              0.0000000000
     11394        92  POPS      O22            57.0257027421       31.9917126757       30.3747870711  MEMB      86              0.0000000000
     11395        92  POPS      C22            55.5809571235       33.3669527099       31.7851585030  MEMB      86              0.0000000000
     11396        92  POPS      H2R            54.8989753675       34.1911980952       31.4968140410  MEMB      86              0.0000000000
     11397        92  POPS      H2S            56.2111725952       33.7286100965       32.6254273813  MEMB      86              0.0000000000
     11398        92  POPS      C3             58.0995740870       35.6547971047       28.5810497567  MEMB      86              0.0000000000
     11399        92  POPS      HX             58.5469204075       35.6495061517       27.5606476715  MEMB      86              0.0000000000
     11400        92  POPS      HY             58.9118778707       36.0061265569       29.2573086309  MEMB      86              0.0000000000
     11401        92  POPS      O31            56.9549111029       36.5462559643       28.6045065635  MEMB      86              0.0000000000
     11402        92  POPS      C31            56.7227155309       37.0843852457       29.8099133921  MEMB      86              0.0000000000
     11403        92  POPS      O32            57.3897859117       36.9017250113       30.8107926475  MEMB      86              0.0000000000
     11404        92  POPS      C32            55.4914530913       37.9745659123       29.7557266988  MEMB      86              0.0000000000
     11405        92  POPS      H2X            54.6606616075       37.4101845634       29.2837257839  MEMB      86              0.0000000000
     11406        92  POPS      H2Y            55.7420484180       38.8505203543       29.1215267635  MEMB      86              0.0000000000
     11407        92  POPS      C23            54.7727790242       32.1327393859       32.2394946407  MEMB      86              0.0000000000
     11408        92  POPS      H3R            55.3384132925       31.1880521709       32.0663402110  MEMB      86              0.0000000000
     11409        92  POPS      H3S            53.8381432058       32.0659669749       31.6363756168  MEMB      86              0.0000000000
     11410        92  POPS      C24            54.4389716130       32.2170334337       33.7352646094  MEMB      86              0.0000000000
     11411        92  POPS      H4R            53.5622649606       31.5737295718       33.9551390887  MEMB      86              0.0000000000
     11412        92  POPS      H4S            54.1580443354       33.2614065639       33.9923487235  MEMB      86              0.0000000000
     11413        92  POPS      C25            55.5976433876       31.7309712717       34.6200856748  MEMB      86              0.0000000000
     11414        92  POPS      H5R            56.4525561482       32.4388468026       34.5653033787  MEMB      86              0.0000000000
     11415        92  POPS      H5S            55.9391973489       30.7499459182       34.2158022415  MEMB      86              0.0000000000
     11416        92  POPS      C26            55.1847363952       31.5024538139       36.0805041455  MEMB      86              0.0000000000
     11417        92  POPS      H6R            55.9967392452       30.9613357695       36.6136863909  MEMB      86              0.0000000000
     11418        92  POPS      H6S            54.2914444817       30.8383349823       36.0833230253  MEMB      86              0.0000000000
     11419        92  POPS      C27            54.8748820867       32.8011667561       36.8365603251  MEMB      86              0.0000000000
     11420        92  POPS      H7R            54.2502756623       33.4515973322       36.1923545918  MEMB      86              0.0000000000
     11421        92  POPS      H7S            55.8264743796       33.3518362582       37.0096780357  MEMB      86              0.0000000000
     11422        92  POPS      C28            54.1709595629       32.5871204476       38.1947600278  MEMB      86              0.0000000000
     11423        92  POPS      H8R            54.0313223240       33.5871211931       38.6621951951  MEMB      86              0.0000000000
     11424        92  POPS      H8S            54.8718004731       32.0256348478       38.8537147729  MEMB      86              0.0000000000
     11425        92  POPS      C29            52.8447474398       31.8664753608       38.1409552728  MEMB      86              0.0000000000
     11426        92  POPS      H91            52.8407343333       30.8671303879       38.6028862580  MEMB      86              0.0000000000
     11427        92  POPS      C210           51.6975461188       32.3170836198       37.5991093056  MEMB      86              0.0000000000
     11428        92  POPS      H101           50.8108422286       31.6673244012       37.6453890695  MEMB      86              0.0000000000
     11429        92  POPS      C211           51.4669748949       33.6439305603       36.9179450937  MEMB      86              0.0000000000
     11430        92  POPS      H11R           50.9407580846       33.4727439674       35.9523243854  MEMB      86              0.0000000000
     11431        92  POPS      H11S           52.4189179437       34.1599745360       36.6702052008  MEMB      86              0.0000000000
     11432        92  POPS      C212           50.6448927368       34.6405630471       37.7557587536  MEMB      86              0.0000000000
     11433        92  POPS      H12R           49.6657101839       34.1966032673       38.0306223224  MEMB      86              0.0000000000
     11434        92  POPS      H12S           50.4385325672       35.5295747607       37.1159118013  MEMB      86              0.0000000000
     11435        92  POPS      C213           51.3780009088       35.1299826235       39.0171894726  MEMB      86              0.0000000000
     11436        92  POPS      H13R           52.4129673122       35.4168722324       38.7375242961  MEMB      86              0.0000000000
     11437        92  POPS      H13S           51.4562716174       34.2984548634       39.7505063435  MEMB      86              0.0000000000
     11438        92  POPS      C214           50.6903860945       36.3422817168       39.6613277460  MEMB      86              0.0000000000
     11439        92  POPS      H14R           49.7076308070       36.0152103793       40.0618158600  MEMB      86              0.0000000000
     11440        92  POPS      H14S           50.4892246073       37.1041247684       38.8752465028  MEMB      86              0.0000000000
     11441        92  POPS      C215           51.4901530040       37.0230610374       40.7860084632  MEMB      86              0.0000000000
     11442        92  POPS      H15R           50.8337836861       37.7936657605       41.2507442413  MEMB      86              0.0000000000
     11443        92  POPS      H15S           52.3696275737       37.5477535008       40.3498228780  MEMB      86              0.0000000000
     11444        92  POPS      C216           51.9817186002       36.0637828352       41.8793084179  MEMB      86              0.0000000000
     11445        92  POPS      H16R           52.9183191402       35.5704124208       41.5348097510  MEMB      86              0.0000000000
     11446        92  POPS      H16S           51.2247287278       35.2650067156       42.0304816402  MEMB      86              0.0000000000
     11447        92  POPS      C217           52.2218623368       36.7433153736       43.2346177489  MEMB      86              0.0000000000
     11448        92  POPS      H17R           52.6576615793       35.9886376672       43.9302651743  MEMB      86              0.0000000000
     11449        92  POPS      H17S           51.2381842769       37.0537442210       43.6558269253  MEMB      86              0.0000000000
     11450        92  POPS      C218           53.1431244744       37.9619369029       43.1791110710  MEMB      86              0.0000000000
     11451        92  POPS      H18R           52.6793282949       38.7908841396       42.6030068023  MEMB      86              0.0000000000
     11452        92  POPS      H18S           54.1073474208       37.7018698876       42.6949126237  MEMB      86              0.0000000000
     11453        92  POPS      H18T           53.3590760936       38.3228659993       44.2071795542  MEMB      86              0.0000000000
     11454        92  POPS      C33            55.0924815458       38.4649701155       31.1705017813  MEMB      86              0.0000000000
     11455        92  POPS      H3X            54.2534302184       39.1868192379       31.0399390631  MEMB      86              0.0000000000
     11456        92  POPS      H3Y            55.9339724985       39.0202978785       31.6443794840  MEMB      86              0.0000000000
     11457        92  POPS      C34            54.6170226716       37.3481290220       32.1200475759  MEMB      86              0.0000000000
     11458        92  POPS      H4X            55.4598216731       36.6755991508       32.3925293948  MEMB      86              0.0000000000
     11459        92  POPS      H4Y            53.8654112013       36.7330289710       31.5716843474  MEMB      86              0.0000000000
     11460        92  POPS      C35            53.9610364892       37.9161239966       33.3885200792  MEMB      86              0.0000000000
     11461        92  POPS      H5X            52.9507541069       37.4628133026       33.5127817151  MEMB      86              0.0000000000
     11462        92  POPS      H5Y            53.8331955054       39.0149770872       33.2508142684  MEMB      86              0.0000000000
     11463        92  POPS      C36            54.7240038346       37.7425548924       34.7021888524  MEMB      86              0.0000000000
     11464        92  POPS      H6X            55.7632112687       38.1238497327       34.5869306316  MEMB      86              0.0000000000
     11465        92  POPS      H6Y            54.7736758283       36.6653855432       34.9719569900  MEMB      86              0.0000000000
     11466        92  POPS      C37            54.0067528298       38.5452483700       35.7999795243  MEMB      86              0.0000000000
     11467        92  POPS      H7X            52.9750709450       38.1488329227       35.9318700873  MEMB      86              0.0000000000
     11468        92  POPS      H7Y            53.9155968035       39.6008427070       35.4535304934  MEMB      86              0.0000000000
     11469        92  POPS      C38            54.7276763784       38.5558114979       37.1484439376  MEMB      86              0.0000000000
     11470        92  POPS      H8X            54.1971574844       39.2550609662       37.8354806247  MEMB      86              0.0000000000
     11471        92  POPS      H8Y            55.7615124458       38.9388692863       37.0005233551  MEMB      86              0.0000000000
     11472        92  POPS      C39            54.7954982052       37.1828575426       37.8097177736  MEMB      86              0.0000000000
     11473        92  POPS      H9X            55.3708508626       36.4830147023       37.1638204994  MEMB      86              0.0000000000
     11474        92  POPS      H9Y            53.7665289125       36.7753618787       37.9099340805  MEMB      86              0.0000000000
     11475        92  POPS      C310           55.4556015994       37.2525499577       39.1885741471  MEMB      86              0.0000000000
     11476        92  POPS      H10X           54.8547570711       37.9051305197       39.8606458555  MEMB      86              0.0000000000
     11477        92  POPS      H10Y           56.4656427201       37.7099891955       39.0862109536  MEMB      86              0.0000000000
     11478        92  POPS      C311           55.5904816382       35.8619851534       39.8040360058  MEMB      86              0.0000000000
     11479        92  POPS      H11X           56.1605183915       35.2185742118       39.0952675767  MEMB      86              0.0000000000
     11480        92  POPS      H11Y           54.5802557488       35.4114761141       39.9213941795  MEMB      86              0.0000000000
     11481        92  POPS      C312           56.3040530340       35.8634718048       41.1576774397  MEMB      86              0.0000000000
     11482        92  POPS      H12X           55.6888218528       36.3965686403       41.9127601772  MEMB      86              0.0000000000
     11483        92  POPS      H12Y           57.2639628481       36.4156888459       41.0610153646  MEMB      86              0.0000000000
     11484        92  POPS      C313           56.5848642345       34.4292274382       41.6179885384  MEMB      86              0.0000000000
     11485        92  POPS      H13X           57.1036282210       33.9070032557       40.7832384305  MEMB      86              0.0000000000
     11486        92  POPS      H13Y           55.6201259240       33.9029253514       41.7943489244  MEMB      86              0.0000000000
     11487        92  POPS      C314           57.4623631542       34.3334091248       42.8726756307  MEMB      86              0.0000000000
     11488        92  POPS      H14X           58.4258764671       34.8633689753       42.7110281094  MEMB      86              0.0000000000
     11489        92  POPS      H14Y           57.7106561487       33.2603485886       43.0352472047  MEMB      86              0.0000000000
     11490        92  POPS      C315           56.7801614809       34.8549342737       44.1418469384  MEMB      86              0.0000000000
     11491        92  POPS      H15X           55.6956084739       35.0100553412       43.9400362310  MEMB      86              0.0000000000
     11492        92  POPS      H15Y           57.2035371999       35.8506409868       44.4023560945  MEMB      86              0.0000000000
     11493        92  POPS      C316           56.9240571346       33.8933857601       45.3253907137  MEMB      86              0.0000000000
     11494        92  POPS      H16X           57.9943009347       33.6732968242       45.5239600636  MEMB      86              0.0000000000
     11495        92  POPS      H16Y           56.3977355626       32.9367037748       45.1134025799  MEMB      86              0.0000000000
     11496        92  POPS      H16Z           56.4872268734       34.3399404872       46.2413642381  MEMB      86              0.0000000000
     11497        93  POPC      N              52.9597111739       26.1805332824       24.1274356208  MEMB      87              0.0000000000
     11498        93  POPC      C12            53.4298530063       24.8009528722       24.5177214793  MEMB      87              0.0000000000
     11499        93  POPC      H12A           54.3112048514       24.5138095182       23.9568413260  MEMB      87              0.0000000000
     11500        93  POPC      H12B           52.6442174332       24.0986925669       24.2516043758  MEMB      87              0.0000000000
     11501        93  POPC      C13            53.5698000164       27.2272163517       25.0277697672  MEMB      87              0.0000000000
     11502        93  POPC      H13A           54.5776209393       27.4805418174       24.7556311971  MEMB      87              0.0000000000
     11503        93  POPC      H13B           52.9557082289       28.1207681340       25.0506914525  MEMB      87              0.0000000000
     11504        93  POPC      H13C           53.5607601114       26.8775940046       26.0656924051  MEMB      87              0.0000000000
     11505        93  POPC      C14            53.1718159618       26.5442071434       22.7056238753  MEMB      87              0.0000000000
     11506        93  POPC      H14A           54.1984036635       26.8050857770       22.5027647979  MEMB      87              0.0000000000
     11507        93  POPC      H14B           52.8494678138       25.7777265229       22.0079778762  MEMB      87              0.0000000000
     11508        93  POPC      H14C           52.5958948570       27.4432478593       22.4559627511  MEMB      87              0.0000000000
     11509        93  POPC      C15            51.4975438755       26.2252305824       24.3977543624  MEMB      87              0.0000000000
     11510        93  POPC      H15A           51.0967690240       27.2046025526       24.1910219833  MEMB      87              0.0000000000
     11511        93  POPC      H15B           51.3934076243       25.9964572864       25.4555343387  MEMB      87              0.0000000000
     11512        93  POPC      H15C           50.9371769204       25.4631562174       23.8698442961  MEMB      87              0.0000000000
     11513        93  POPC      C11            53.7151985508       24.5823322777       26.0245024892  MEMB      87              0.0000000000
     11514        93  POPC      H11A           54.7000660157       25.0581456285       26.2538679579  MEMB      87              0.0000000000
     11515        93  POPC      H11B           53.8381142818       23.4887544614       26.1785309580  MEMB      87              0.0000000000
     11516        93  POPC      P              52.9207416057       25.7320288604       28.2660517142  MEMB      87              0.0000000000
     11517        93  POPC      O13            54.3461173876       26.1154972452       28.3215271028  MEMB      87              0.0000000000
     11518        93  POPC      O14            52.4185788750       24.7918081554       29.2901289721  MEMB      87              0.0000000000
     11519        93  POPC      O12            52.6446318124       25.0631125994       26.8472341100  MEMB      87              0.0000000000
     11520        93  POPC      O11            52.0220894762       27.0381984434       28.2036731328  MEMB      87              0.0000000000
     11521        93  POPC      C1             50.6933966659       27.1090407388       27.6955100148  MEMB      87              0.0000000000
     11522        93  POPC      HA             50.4605412944       26.2666073757       27.0084567932  MEMB      87              0.0000000000
     11523        93  POPC      HB             50.5969867570       28.0574063518       27.1203622130  MEMB      87              0.0000000000
     11524        93  POPC      C2             49.5566866534       27.1491691425       28.7716721109  MEMB      87              0.0000000000
     11525        93  POPC      HS             48.5988299601       27.2720103867       28.2229980102  MEMB      87              0.0000000000
     11526        93  POPC      O21            49.7752323809       28.2524976142       29.6710452508  MEMB      87              0.0000000000
     11527        93  POPC      C21            48.7319456659       28.7366375477       30.3366493757  MEMB      87              0.0000000000
     11528        93  POPC      O22            47.6337469636       28.2291094464       30.4247200904  MEMB      87              0.0000000000
     11529        93  POPC      C22            49.0956588676       30.0577898961       30.9933429402  MEMB      87              0.0000000000
     11530        93  POPC      H2R            48.2389937697       30.7396491426       30.8209289235  MEMB      87              0.0000000000
     11531        93  POPC      H2S            49.9761529185       30.4797328936       30.4680616230  MEMB      87              0.0000000000
     11532        93  POPC      C3             49.4796364431       25.7826017051       29.5185641250  MEMB      87              0.0000000000
     11533        93  POPC      HX             49.8256157046       25.0060994358       28.7936898812  MEMB      87              0.0000000000
     11534        93  POPC      HY             48.4086477335       25.5873847716       29.6985692982  MEMB      87              0.0000000000
     11535        93  POPC      O31            50.2197262738       25.6870754960       30.7581033126  MEMB      87              0.0000000000
     11536        93  POPC      C31            50.1114288028       24.4486826476       31.2356558880  MEMB      87              0.0000000000
     11537        93  POPC      O32            49.3397789198       23.6012522425       30.8059833368  MEMB      87              0.0000000000
     11538        93  POPC      C32            50.9880028614       24.2786401855       32.4757360297  MEMB      87              0.0000000000
     11539        93  POPC      H2X            51.0221697557       25.2454379172       33.0172498848  MEMB      87              0.0000000000
     11540        93  POPC      H2Y            52.0109966140       24.0376939212       32.1165530488  MEMB      87              0.0000000000
     11541        93  POPC      C23            49.3690720443       29.8648185408       32.4912296437  MEMB      87              0.0000000000
     11542        93  POPC      H3R            48.4913499660       29.4092405181       33.0029895179  MEMB      87              0.0000000000
     11543        93  POPC      H3S            49.5392143356       30.8625478674       32.9557703928  MEMB      87              0.0000000000
     11544        93  POPC      C24            50.6056380075       28.9914342234       32.6855388002  MEMB      87              0.0000000000
     11545        93  POPC      H4R            51.0337599783       28.7445436112       31.6850836749  MEMB      87              0.0000000000
     11546        93  POPC      H4S            50.3340833029       28.0224270172       33.1546793843  MEMB      87              0.0000000000
     11547        93  POPC      C25            51.7005112122       29.6860314937       33.4844561997  MEMB      87              0.0000000000
     11548        93  POPC      H5R            51.2886239466       30.1052545140       34.4299264583  MEMB      87              0.0000000000
     11549        93  POPC      H5S            52.0824514314       30.5276306084       32.8638621067  MEMB      87              0.0000000000
     11550        93  POPC      C26            52.8402727440       28.7241759975       33.8120681754  MEMB      87              0.0000000000
     11551        93  POPC      H6R            52.4579666726       27.9955946448       34.5617917412  MEMB      87              0.0000000000
     11552        93  POPC      H6S            53.6719164106       29.2918814354       34.2840760210  MEMB      87              0.0000000000
     11553        93  POPC      C27            53.3774066329       27.9689501341       32.5829876771  MEMB      87              0.0000000000
     11554        93  POPC      H7R            53.7094946431       28.7121393028       31.8217189807  MEMB      87              0.0000000000
     11555        93  POPC      H7S            52.5772793917       27.3526653191       32.1111129612  MEMB      87              0.0000000000
     11556        93  POPC      C28            54.5596986885       27.0498695178       32.9119577453  MEMB      87              0.0000000000
     11557        93  POPC      H8R            55.4009879848       27.6686528348       33.2977599445  MEMB      87              0.0000000000
     11558        93  POPC      H8S            54.9123927592       26.5818282579       31.9630844079  MEMB      87              0.0000000000
     11559        93  POPC      C29            54.1338473309       25.9815054010       33.8829834539  MEMB      87              0.0000000000
     11560        93  POPC      H91            53.6166172218       25.1264229352       33.4237089184  MEMB      87              0.0000000000
     11561        93  POPC      C210           54.3171924213       25.9958785802       35.2130036855  MEMB      87              0.0000000000
     11562        93  POPC      H101           54.0001271306       25.1204054117       35.7974600065  MEMB      87              0.0000000000
     11563        93  POPC      C211           54.9852109188       27.0921288970       36.0072346691  MEMB      87              0.0000000000
     11564        93  POPC      H11R           55.0701856482       28.0449563537       35.4411637860  MEMB      87              0.0000000000
     11565        93  POPC      H11S           56.0213298599       26.7935099387       36.2592380924  MEMB      87              0.0000000000
     11566        93  POPC      C212           54.2636771216       27.3759963650       37.3348460643  MEMB      87              0.0000000000
     11567        93  POPC      H12R           54.0399263078       26.4059018786       37.8327816372  MEMB      87              0.0000000000
     11568        93  POPC      H12S           53.2982135529       27.8942825157       37.1428904934  MEMB      87              0.0000000000
     11569        93  POPC      C213           55.1314502346       28.2230285376       38.2774788322  MEMB      87              0.0000000000
     11570        93  POPC      H13R           55.3160265398       29.2134585419       37.8077792119  MEMB      87              0.0000000000
     11571        93  POPC      H13S           56.1232426718       27.7293023558       38.3970207562  MEMB      87              0.0000000000
     11572        93  POPC      C214           54.5251659623       28.4264349224       39.6729388818  MEMB      87              0.0000000000
     11573        93  POPC      H14R           53.5784394987       29.0036162469       39.5888214645  MEMB      87              0.0000000000
     11574        93  POPC      H14S           55.2438030725       29.0336528514       40.2683672433  MEMB      87              0.0000000000
     11575        93  POPC      C215           54.2337335283       27.1083596274       40.4068904305  MEMB      87              0.0000000000
     11576        93  POPC      H15R           55.1226509097       26.4455072398       40.3604151259  MEMB      87              0.0000000000
     11577        93  POPC      H15S           53.4080997091       26.5792230247       39.8831131089  MEMB      87              0.0000000000
     11578        93  POPC      C216           53.8301113344       27.2901409109       41.8751349336  MEMB      87              0.0000000000
     11579        93  POPC      H16R           53.4634963584       26.3090762902       42.2564498852  MEMB      87              0.0000000000
     11580        93  POPC      H16S           52.9885747556       28.0134205515       41.9454964592  MEMB      87              0.0000000000
     11581        93  POPC      C217           54.9828166530       27.7470393777       42.7753403729  MEMB      87              0.0000000000
     11582        93  POPC      H17R           55.3435788238       28.7466674254       42.4454792175  MEMB      87              0.0000000000
     11583        93  POPC      H17S           55.8292987647       27.0310867094       42.6604346124  MEMB      87              0.0000000000
     11584        93  POPC      C218           54.5799818261       27.8143836763       44.2479713266  MEMB      87              0.0000000000
     11585        93  POPC      H18R           54.2198691353       26.8189642227       44.5863755068  MEMB      87              0.0000000000
     11586        93  POPC      H18S           53.7601714413       28.5507319627       44.3903468321  MEMB      87              0.0000000000
     11587        93  POPC      H18T           55.4412693998       28.1153162615       44.8821257495  MEMB      87              0.0000000000
     11588        93  POPC      C33            50.4412609317       23.1498443400       33.3818825757  MEMB      87              0.0000000000
     11589        93  POPC      H3X            50.5194040713       22.1909472282       32.8156608267  MEMB      87              0.0000000000
     11590        93  POPC      H3Y            49.3662527641       23.3247608618       33.6061154172  MEMB      87              0.0000000000
     11591        93  POPC      C34            51.1784223697       22.9993900639       34.7190510289  MEMB      87              0.0000000000
     11592        93  POPC      H4X            52.2759510447       23.0409910382       34.5404504238  MEMB      87              0.0000000000
     11593        93  POPC      H4Y            50.9289142618       21.9997660933       35.1467821347  MEMB      87              0.0000000000
     11594        93  POPC      C35            50.7821026623       24.0419513406       35.7687058990  MEMB      87              0.0000000000
     11595        93  POPC      H5X            49.6919453146       23.9496676968       35.9770134799  MEMB      87              0.0000000000
     11596        93  POPC      H5Y            50.9693001188       25.0638040059       35.3689298287  MEMB      87              0.0000000000
     11597        93  POPC      C36            51.5638410870       23.8527715994       37.0747463889  MEMB      87              0.0000000000
     11598        93  POPC      H6X            52.6480925844       23.9505501394       36.8508493754  MEMB      87              0.0000000000
     11599        93  POPC      H6Y            51.3995268384       22.8235852982       37.4616750882  MEMB      87              0.0000000000
     11600        93  POPC      C37            51.1901195373       24.8587336569       38.1716031744  MEMB      87              0.0000000000
     11601        93  POPC      H7X            51.0729730742       25.8727476515       37.7306393370  MEMB      87              0.0000000000
     11602        93  POPC      H7Y            52.0365492306       24.8938561420       38.8954618966  MEMB      87              0.0000000000
     11603        93  POPC      C38            49.9174691259       24.4495882272       38.9299690239  MEMB      87              0.0000000000
     11604        93  POPC      H8X            50.0926854547       23.4618815839       39.4100213764  MEMB      87              0.0000000000
     11605        93  POPC      H8Y            49.0930609383       24.3091356017       38.1969910767  MEMB      87              0.0000000000
     11606        93  POPC      C39            49.4629115691       25.4411249359       40.0148691742  MEMB      87              0.0000000000
     11607        93  POPC      H9X            48.7384791868       24.9287234107       40.6871479105  MEMB      87              0.0000000000
     11608        93  POPC      H9Y            48.9231487909       26.2806213300       39.5306089542  MEMB      87              0.0000000000
     11609        93  POPC      C310           50.6072108620       26.0241509849       40.8545034234  MEMB      87              0.0000000000
     11610        93  POPC      H10X           51.2060179031       26.7025833682       40.2047595695  MEMB      87              0.0000000000
     11611        93  POPC      H10Y           51.2781061995       25.2038722082       41.1933924754  MEMB      87              0.0000000000
     11612        93  POPC      C311           50.1207600196       26.8262568940       42.0709737002  MEMB      87              0.0000000000
     11613        93  POPC      H11X           49.0214097399       26.9870520035       42.0090350479  MEMB      87              0.0000000000
     11614        93  POPC      H11Y           50.5971220537       27.8337689603       42.0419637626  MEMB      87              0.0000000000
     11615        93  POPC      C312           50.4761015658       26.1763582118       43.4188528259  MEMB      87              0.0000000000
     11616        93  POPC      H12X           50.2280883566       26.9024060745       44.2229647403  MEMB      87              0.0000000000
     11617        93  POPC      H12Y           51.5721843228       25.9997743672       43.4697859535  MEMB      87              0.0000000000
     11618        93  POPC      C313           49.7366982062       24.8577604969       43.6916912108  MEMB      87              0.0000000000
     11619        93  POPC      H13X           50.0479743226       24.1022277869       42.9374900508  MEMB      87              0.0000000000
     11620        93  POPC      H13Y           48.6458323071       25.0155649079       43.5512576266  MEMB      87              0.0000000000
     11621        93  POPC      C314           49.9895281670       24.2925547920       45.1021876416  MEMB      87              0.0000000000
     11622        93  POPC      H14X           51.0620545224       24.0092321253       45.1907863468  MEMB      87              0.0000000000
     11623        93  POPC      H14Y           49.3861042262       23.3634489406       45.2208197878  MEMB      87              0.0000000000
     11624        93  POPC      C315           49.6464698169       25.2519672839       46.2562043433  MEMB      87              0.0000000000
     11625        93  POPC      H15X           50.3952999064       26.0769202174       46.2817176158  MEMB      87              0.0000000000
     11626        93  POPC      H15Y           49.7484470842       24.6942003815       47.2149168914  MEMB      87              0.0000000000
     11627        93  POPC      C316           48.2464582588       25.8632009326       46.1680677557  MEMB      87              0.0000000000
     11628        93  POPC      H16X           48.1537612930       26.4887564804       45.2576131887  MEMB      87              0.0000000000
     11629        93  POPC      H16Y           48.0437550687       26.5244042749       47.0344977904  MEMB      87              0.0000000000
     11630        93  POPC      H16Z           47.4710486955       25.0705716475       46.1373097301  MEMB      87              0.0000000000
     11631        94  POPC      N              28.1293209245       55.0521155241       24.7221613135  MEMB      88              0.0000000000
     11632        94  POPC      C12            28.5424447491       55.4857456457       26.1176020537  MEMB      88              0.0000000000
     11633        94  POPC      H12A           29.4909736184       56.0018989637       26.0309848639  MEMB      88              0.0000000000
     11634        94  POPC      H12B           28.7194223030       54.5732086983       26.7073713618  MEMB      88              0.0000000000
     11635        94  POPC      C13            27.6083582021       56.1815730838       23.8894442847  MEMB      88              0.0000000000
     11636        94  POPC      H13A           26.7323362132       56.6075818247       24.3684775782  MEMB      88              0.0000000000
     11637        94  POPC      H13B           28.3698439802       56.9391267596       23.7437605532  MEMB      88              0.0000000000
     11638        94  POPC      H13C           27.2954917771       55.8277915903       22.9105527490  MEMB      88              0.0000000000
     11639        94  POPC      C14            29.2769344992       54.3827149847       24.0227274903  MEMB      88              0.0000000000
     11640        94  POPC      H14A           28.9373293930       53.9121862233       23.1023636958  MEMB      88              0.0000000000
     11641        94  POPC      H14B           30.0844841981       55.0808590863       23.7918937826  MEMB      88              0.0000000000
     11642        94  POPC      H14C           29.6781998453       53.5806380004       24.6403134977  MEMB      88              0.0000000000
     11643        94  POPC      C15            27.0671056776       54.0187397117       24.8755046509  MEMB      88              0.0000000000
     11644        94  POPC      H15A           27.4349702549       53.1782101902       25.4769759249  MEMB      88              0.0000000000
     11645        94  POPC      H15B           26.7228516077       53.6461375831       23.9243715350  MEMB      88              0.0000000000
     11646        94  POPC      H15C           26.2391417345       54.4175226068       25.4601975828  MEMB      88              0.0000000000
     11647        94  POPC      C11            27.5408424082       56.3147870952       26.9896843068  MEMB      88              0.0000000000
     11648        94  POPC      H11A           27.3273686178       57.2699168913       26.4706567801  MEMB      88              0.0000000000
     11649        94  POPC      H11B           28.0393321478       56.5763518703       27.9507737535  MEMB      88              0.0000000000
     11650        94  POPC      P              26.2858746219       54.3076631653       28.1385066657  MEMB      88              0.0000000000
     11651        94  POPC      O13            27.6869734285       53.8289232047       28.1882506247  MEMB      88              0.0000000000
     11652        94  POPC      O14            25.2937274182       53.4259114391       27.4840028495  MEMB      88              0.0000000000
     11653        94  POPC      O12            26.2993131916       55.6597908691       27.2686737383  MEMB      88              0.0000000000
     11654        94  POPC      O11            25.7468366534       54.6754284890       29.5696492525  MEMB      88              0.0000000000
     11655        94  POPC      C1             24.4701337306       55.2994714789       29.7520189293  MEMB      88              0.0000000000
     11656        94  POPC      HA             24.1489418490       55.1192382874       30.8017612150  MEMB      88              0.0000000000
     11657        94  POPC      HB             23.6892314046       54.8667252382       29.0868987272  MEMB      88              0.0000000000
     11658        94  POPC      C2             24.5731002516       56.8310218682       29.5807978828  MEMB      88              0.0000000000
     11659        94  POPC      HS             24.5985358870       57.0349169444       28.4835277599  MEMB      88              0.0000000000
     11660        94  POPC      O21            25.7951613828       57.1933854934       30.2030105327  MEMB      88              0.0000000000
     11661        94  POPC      C21            26.4068235209       58.2311381415       29.7836370716  MEMB      88              0.0000000000
     11662        94  POPC      O22            26.0539147436       58.9785175886       28.8845980301  MEMB      88              0.0000000000
     11663        94  POPC      C22            27.7636514775       58.2192407288       30.5057867479  MEMB      88              0.0000000000
     11664        94  POPC      H2R            28.2634264672       59.1804407218       30.2928901510  MEMB      88              0.0000000000
     11665        94  POPC      H2S            28.3591550739       57.3998866948       30.0582397097  MEMB      88              0.0000000000
     11666        94  POPC      C3             23.4143134713       57.6438193949       30.2092790674  MEMB      88              0.0000000000
     11667        94  POPC      HX             22.4612291047       57.1688972068       29.8894257847  MEMB      88              0.0000000000
     11668        94  POPC      HY             23.4199332446       58.6711420402       29.7741904287  MEMB      88              0.0000000000
     11669        94  POPC      O31            23.4813162127       57.6487958761       31.6529623063  MEMB      88              0.0000000000
     11670        94  POPC      C31            24.0307194801       58.7340692331       32.2100981771  MEMB      88              0.0000000000
     11671        94  POPC      O32            24.4646774978       59.7034761731       31.6178759906  MEMB      88              0.0000000000
     11672        94  POPC      C32            23.9447546460       58.5975798189       33.7358668903  MEMB      88              0.0000000000
     11673        94  POPC      H2X            23.9364950501       57.5098850584       33.9264885146  MEMB      88              0.0000000000
     11674        94  POPC      H2Y            22.9570661604       59.0171235541       34.0249105801  MEMB      88              0.0000000000
     11675        94  POPC      C23            27.6587236748       57.9610641680       32.0358812825  MEMB      88              0.0000000000
     11676        94  POPC      H3R            26.8105521670       58.5493682171       32.4453215066  MEMB      88              0.0000000000
     11677        94  POPC      H3S            28.5819147781       58.3298940651       32.5346711236  MEMB      88              0.0000000000
     11678        94  POPC      C24            27.4963532658       56.4736621755       32.4176210270  MEMB      88              0.0000000000
     11679        94  POPC      H4R            26.8678716768       55.9308872984       31.6802313303  MEMB      88              0.0000000000
     11680        94  POPC      H4S            26.9693325772       56.3867396780       33.3903512595  MEMB      88              0.0000000000
     11681        94  POPC      C25            28.8241948620       55.7171853706       32.5264701096  MEMB      88              0.0000000000
     11682        94  POPC      H5R            29.3072303460       55.9781716792       33.4928538317  MEMB      88              0.0000000000
     11683        94  POPC      H5S            29.5014644799       56.0440222606       31.7106476241  MEMB      88              0.0000000000
     11684        94  POPC      C26            28.6534976990       54.1935130240       32.4282934434  MEMB      88              0.0000000000
     11685        94  POPC      H6R            29.6456427276       53.7314673726       32.6235065707  MEMB      88              0.0000000000
     11686        94  POPC      H6S            28.3687024874       53.9120614501       31.3861003359  MEMB      88              0.0000000000
     11687        94  POPC      C27            27.5876502989       53.6301097741       33.3875164365  MEMB      88              0.0000000000
     11688        94  POPC      H7R            26.6330013950       53.5510192710       32.8167395724  MEMB      88              0.0000000000
     11689        94  POPC      H7S            27.4188846716       54.3416512359       34.2269837799  MEMB      88              0.0000000000
     11690        94  POPC      C28            27.9411029838       52.2511362085       33.9718220788  MEMB      88              0.0000000000
     11691        94  POPC      H8R            28.2258703210       51.5830556180       33.1275865879  MEMB      88              0.0000000000
     11692        94  POPC      H8S            27.0228963724       51.8192766014       34.4256179503  MEMB      88              0.0000000000
     11693        94  POPC      C29            29.0706429344       52.3769388221       34.9657997638  MEMB      88              0.0000000000
     11694        94  POPC      H91            30.0389775147       52.6450168544       34.5167931978  MEMB      88              0.0000000000
     11695        94  POPC      C210           29.0204228410       52.1982022459       36.2976729617  MEMB      88              0.0000000000
     11696        94  POPC      H101           29.9476048734       52.3349245137       36.8751323663  MEMB      88              0.0000000000
     11697        94  POPC      C211           27.8178755667       51.8241372897       37.1229595172  MEMB      88              0.0000000000
     11698        94  POPC      H11R           28.0278482839       50.8584555007       37.6317920063  MEMB      88              0.0000000000
     11699        94  POPC      H11S           26.9087815938       51.6835273575       36.4986056249  MEMB      88              0.0000000000
     11700        94  POPC      C212           27.4667067580       52.8556983129       38.2024743586  MEMB      88              0.0000000000
     11701        94  POPC      H12R           27.1552221424       53.8066358341       37.7145532425  MEMB      88              0.0000000000
     11702        94  POPC      H12S           28.3654741045       53.0744488478       38.8224319205  MEMB      88              0.0000000000
     11703        94  POPC      C213           26.3400281386       52.3820424314       39.1386878109  MEMB      88              0.0000000000
     11704        94  POPC      H13R           26.6521848315       51.4479727729       39.6523549817  MEMB      88              0.0000000000
     11705        94  POPC      H13S           25.4205646454       52.1623808237       38.5525008432  MEMB      88              0.0000000000
     11706        94  POPC      C214           26.0464771023       53.4611950548       40.1821282244  MEMB      88              0.0000000000
     11707        94  POPC      H14R           25.6534532164       54.3492692581       39.6390580323  MEMB      88              0.0000000000
     11708        94  POPC      H14S           27.0195320098       53.7408650752       40.6401555077  MEMB      88              0.0000000000
     11709        94  POPC      C215           25.0628321987       53.1089636571       41.3078284447  MEMB      88              0.0000000000
     11710        94  POPC      H15R           24.1001678312       52.7846711218       40.8670729787  MEMB      88              0.0000000000
     11711        94  POPC      H15S           24.8612008308       54.0439453758       41.8832815065  MEMB      88              0.0000000000
     11712        94  POPC      C216           25.5629728538       52.0402250000       42.2940126915  MEMB      88              0.0000000000
     11713        94  POPC      H16R           25.6369916531       51.0607728093       41.7729698844  MEMB      88              0.0000000000
     11714        94  POPC      H16S           24.8069433677       51.9309032084       43.1044684870  MEMB      88              0.0000000000
     11715        94  POPC      C217           26.9242355435       52.3740048026       42.9205439113  MEMB      88              0.0000000000
     11716        94  POPC      H17R           26.8873778982       53.4097669861       43.3191454610  MEMB      88              0.0000000000
     11717        94  POPC      H17S           27.7092080220       52.3441445093       42.1314954456  MEMB      88              0.0000000000
     11718        94  POPC      C218           27.3306594173       51.4355777906       44.0528824230  MEMB      88              0.0000000000
     11719        94  POPC      H18R           28.3306016252       51.7093735587       44.4529214559  MEMB      88              0.0000000000
     11720        94  POPC      H18S           27.3733032944       50.3876781322       43.6872050369  MEMB      88              0.0000000000
     11721        94  POPC      H18T           26.5954487390       51.4976698449       44.8850615587  MEMB      88              0.0000000000
     11722        94  POPC      C33            25.0293524805       59.2842057676       34.6006892606  MEMB      88              0.0000000000
     11723        94  POPC      H3X            24.5050953233       59.9543022159       35.3237763929  MEMB      88              0.0000000000
     11724        94  POPC      H3Y            25.6895130084       59.9345035551       33.9920805551  MEMB      88              0.0000000000
     11725        94  POPC      C34            25.8855980918       58.3079235093       35.4339411805  MEMB      88              0.0000000000
     11726        94  POPC      H4X            26.4604513977       58.9301660437       36.1529191062  MEMB      88              0.0000000000
     11727        94  POPC      H4Y            26.6357007683       57.8071833532       34.7947938360  MEMB      88              0.0000000000
     11728        94  POPC      C35            25.0622744081       57.2275621288       36.1746843487  MEMB      88              0.0000000000
     11729        94  POPC      H5X            24.6957516473       56.4823208337       35.4348141036  MEMB      88              0.0000000000
     11730        94  POPC      H5Y            24.1829607615       57.7221180965       36.6443519168  MEMB      88              0.0000000000
     11731        94  POPC      C36            25.8029343643       56.4100070683       37.2467031204  MEMB      88              0.0000000000
     11732        94  POPC      H6X            26.6499118911       55.8742132862       36.7587558723  MEMB      88              0.0000000000
     11733        94  POPC      H6Y            25.1182607112       55.6383035587       37.6627035733  MEMB      88              0.0000000000
     11734        94  POPC      C37            26.3541426490       57.2834369337       38.3731145725  MEMB      88              0.0000000000
     11735        94  POPC      H7X            26.1573577273       58.3377908572       38.0817478732  MEMB      88              0.0000000000
     11736        94  POPC      H7Y            27.4555776385       57.1396672303       38.4421929798  MEMB      88              0.0000000000
     11737        94  POPC      C38            25.7299999179       57.1420071796       39.7696229873  MEMB      88              0.0000000000
     11738        94  POPC      H8X            24.8732609830       56.4390798730       39.7752994297  MEMB      88              0.0000000000
     11739        94  POPC      H8Y            25.3321392316       58.1483017669       40.0156007698  MEMB      88              0.0000000000
     11740        94  POPC      C39            26.7666672565       56.7873235789       40.8449536001  MEMB      88              0.0000000000
     11741        94  POPC      H9X            27.7076631477       57.3366214835       40.6359509311  MEMB      88              0.0000000000
     11742        94  POPC      H9Y            27.0376280928       55.7241170464       40.7656896842  MEMB      88              0.0000000000
     11743        94  POPC      C310           26.3451939507       57.0976941039       42.2893656846  MEMB      88              0.0000000000
     11744        94  POPC      H10X           25.3125407341       56.7372409409       42.4855356562  MEMB      88              0.0000000000
     11745        94  POPC      H10Y           26.3513648339       58.2021573554       42.4271764020  MEMB      88              0.0000000000
     11746        94  POPC      C311           27.3095737796       56.4416984982       43.2906184773  MEMB      88              0.0000000000
     11747        94  POPC      H11X           28.2779538001       56.2564436104       42.7708468247  MEMB      88              0.0000000000
     11748        94  POPC      H11Y           26.8996410927       55.4584155325       43.5998991548  MEMB      88              0.0000000000
     11749        94  POPC      C312           27.6120683241       57.2807899018       44.5368086865  MEMB      88              0.0000000000
     11750        94  POPC      H12X           26.6860069098       57.4124384661       45.1389042424  MEMB      88              0.0000000000
     11751        94  POPC      H12Y           27.9461552121       58.2905707540       44.2097706475  MEMB      88              0.0000000000
     11752        94  POPC      C313           28.7213330605       56.6481429792       45.3955042985  MEMB      88              0.0000000000
     11753        94  POPC      H13X           29.5174114988       56.2528802346       44.7251596274  MEMB      88              0.0000000000
     11754        94  POPC      H13Y           28.3094437229       55.7749458053       45.9464063279  MEMB      88              0.0000000000
     11755        94  POPC      C314           29.3720176253       57.6414138989       46.3721034185  MEMB      88              0.0000000000
     11756        94  POPC      H14X           29.8656914526       58.4539247973       45.7953340499  MEMB      88              0.0000000000
     11757        94  POPC      H14Y           30.1635808049       57.1236565972       46.9582866005  MEMB      88              0.0000000000
     11758        94  POPC      C315           28.3792893670       58.2807863005       47.3447556881  MEMB      88              0.0000000000
     11759        94  POPC      H15X           27.5263481792       58.7202368219       46.7823029985  MEMB      88              0.0000000000
     11760        94  POPC      H15Y           28.8958247583       59.1218710855       47.8555234809  MEMB      88              0.0000000000
     11761        94  POPC      C316           27.8559065842       57.2952874457       48.3859466894  MEMB      88              0.0000000000
     11762        94  POPC      H16X           28.6645549659       57.0021001231       49.0892598309  MEMB      88              0.0000000000
     11763        94  POPC      H16Y           27.4844901261       56.3794156419       47.8871842047  MEMB      88              0.0000000000
     11764        94  POPC      H16Z           27.0229339072       57.7319413073       48.9723942359  MEMB      88              0.0000000000
     11765        95  POPC      N              10.2903772190       38.1245036743       24.7767057503  MEMB      89              0.0000000000
     11766        95  POPC      C12            11.5293880802       38.9860287281       24.8989173188  MEMB      89              0.0000000000
     11767        95  POPC      H12A           11.2433402199       39.9963428448       24.6541550766  MEMB      89              0.0000000000
     11768        95  POPC      H12B           12.2205057817       38.6339411077       24.1365692695  MEMB      89              0.0000000000
     11769        95  POPC      C13             9.2081466954       38.5936236214       25.7089557756  MEMB      89              0.0000000000
     11770        95  POPC      H13A            9.5102909225       38.4375302815       26.7475597103  MEMB      89              0.0000000000
     11771        95  POPC      H13B            8.9632803536       39.6375766362       25.5948842113  MEMB      89              0.0000000000
     11772        95  POPC      H13C            8.2871671011       38.0294650316       25.5893517332  MEMB      89              0.0000000000
     11773        95  POPC      C14             9.7871817859       38.1601318317       23.3735372015  MEMB      89              0.0000000000
     11774        95  POPC      H14A            9.5034469670       39.1620339953       23.0879638588  MEMB      89              0.0000000000
     11775        95  POPC      H14B           10.5318456410       37.7738840275       22.6816987676  MEMB      89              0.0000000000
     11776        95  POPC      H14C            8.9156343955       37.5174558424       23.3112671242  MEMB      89              0.0000000000
     11777        95  POPC      C15            10.5898500371       36.7022705737       25.1112943142  MEMB      89              0.0000000000
     11778        95  POPC      H15A            9.6839573751       36.1034635933       25.0968296732  MEMB      89              0.0000000000
     11779        95  POPC      H15B           11.0056436175       36.6546038212       26.1179331803  MEMB      89              0.0000000000
     11780        95  POPC      H15C           11.3077610227       36.2796115060       24.4141080661  MEMB      89              0.0000000000
     11781        95  POPC      C11            12.3117959747       38.9931772658       26.2356950456  MEMB      89              0.0000000000
     11782        95  POPC      H11A           11.5968769010       39.0457989138       27.0926793915  MEMB      89              0.0000000000
     11783        95  POPC      H11B           12.9444476186       39.9075465382       26.2842395356  MEMB      89              0.0000000000
     11784        95  POPC      P              13.2234035216       36.8894170330       27.5364992071  MEMB      89              0.0000000000
     11785        95  POPC      O13            14.0408214935       37.5069976804       28.6025007985  MEMB      89              0.0000000000
     11786        95  POPC      O14            13.6128118201       35.5659564426       26.9943164955  MEMB      89              0.0000000000
     11787        95  POPC      O12            13.1819037874       37.8685146219       26.2836604670  MEMB      89              0.0000000000
     11788        95  POPC      O11            11.6813185544       36.8246966095       27.9350965491  MEMB      89              0.0000000000
     11789        95  POPC      C1             11.2133709637       35.5801141743       28.4677420158  MEMB      89              0.0000000000
     11790        95  POPC      HA             11.8287834424       35.3071567467       29.3546630438  MEMB      89              0.0000000000
     11791        95  POPC      HB             11.2926817424       34.7720762484       27.7051862267  MEMB      89              0.0000000000
     11792        95  POPC      C2              9.7372290779       35.6279595286       28.9570941869  MEMB      89              0.0000000000
     11793        95  POPC      HS              9.0768045839       35.9316622865       28.1107112159  MEMB      89              0.0000000000
     11794        95  POPC      O21             9.6437672436       36.5360725806       30.0523141040  MEMB      89              0.0000000000
     11795        95  POPC      C21             9.5139418880       37.8059416223       29.7603376301  MEMB      89              0.0000000000
     11796        95  POPC      O22             9.2691398234       38.2800714372       28.6644184981  MEMB      89              0.0000000000
     11797        95  POPC      C22             9.7210632123       38.5904337009       31.0671512825  MEMB      89              0.0000000000
     11798        95  POPC      H2R             9.4253827480       39.6429491169       30.8953861660  MEMB      89              0.0000000000
     11799        95  POPC      H2S            10.8080925944       38.5578761578       31.2925494135  MEMB      89              0.0000000000
     11800        95  POPC      C3              9.2251375030       34.2565396024       29.4887563940  MEMB      89              0.0000000000
     11801        95  POPC      HX              9.2056125505       33.4907594086       28.6840973816  MEMB      89              0.0000000000
     11802        95  POPC      HY              8.1675732498       34.4221785240       29.7878368448  MEMB      89              0.0000000000
     11803        95  POPC      O31             9.9502163741       33.8314890004       30.6638080631  MEMB      89              0.0000000000
     11804        95  POPC      C31            11.0616713101       33.1328201314       30.4716080868  MEMB      89              0.0000000000
     11805        95  POPC      O32            11.3952788221       32.6164967299       29.4186676711  MEMB      89              0.0000000000
     11806        95  POPC      C32            11.8516298003       33.0328841275       31.7808098813  MEMB      89              0.0000000000
     11807        95  POPC      H2X            12.4528660100       32.1033677491       31.7027883663  MEMB      89              0.0000000000
     11808        95  POPC      H2Y            11.1512780157       32.9259717557       32.6320216302  MEMB      89              0.0000000000
     11809        95  POPC      C23             8.9221166910       37.9953250540       32.2593544568  MEMB      89              0.0000000000
     11810        95  POPC      H3R             9.0712019527       36.8894883791       32.2974818556  MEMB      89              0.0000000000
     11811        95  POPC      H3S             7.8350426529       38.1711558661       32.0953803643  MEMB      89              0.0000000000
     11812        95  POPC      C24             9.3343288527       38.5375891169       33.6351061703  MEMB      89              0.0000000000
     11813        95  POPC      H4R             9.1443999930       39.6327097349       33.6834788451  MEMB      89              0.0000000000
     11814        95  POPC      H4S            10.4289885031       38.3719081963       33.7575788845  MEMB      89              0.0000000000
     11815        95  POPC      C25             8.5962492572       37.8204583316       34.7827357905  MEMB      89              0.0000000000
     11816        95  POPC      H5R             8.6467133718       36.7211242602       34.6108071595  MEMB      89              0.0000000000
     11817        95  POPC      H5S             7.5224172280       38.1135825636       34.7649924776  MEMB      89              0.0000000000
     11818        95  POPC      C26             9.1831154000       38.1179905839       36.1726323406  MEMB      89              0.0000000000
     11819        95  POPC      H6R             9.2080831059       39.2232862433       36.3093542557  MEMB      89              0.0000000000
     11820        95  POPC      H6S            10.2304661513       37.7473482337       36.2229680605  MEMB      89              0.0000000000
     11821        95  POPC      C27             8.3726921180       37.5074723827       37.3324590329  MEMB      89              0.0000000000
     11822        95  POPC      H7R             7.3314658726       37.8882933336       37.2538100833  MEMB      89              0.0000000000
     11823        95  POPC      H7S             8.8020155723       37.8907174817       38.2869594631  MEMB      89              0.0000000000
     11824        95  POPC      C28             8.3649960410       35.9618995415       37.3749156282  MEMB      89              0.0000000000
     11825        95  POPC      H8R             9.4139614159       35.6255855526       37.3444572088  MEMB      89              0.0000000000
     11826        95  POPC      H8S             7.8755077326       35.5803008437       36.4533164483  MEMB      89              0.0000000000
     11827        95  POPC      C29             7.6701141781       35.4085935583       38.5949854606  MEMB      89              0.0000000000
     11828        95  POPC      H91             6.5816336945       35.5726265799       38.5992920125  MEMB      89              0.0000000000
     11829        95  POPC      C210            8.1960676431       34.7300705569       39.6323618095  MEMB      89              0.0000000000
     11830        95  POPC      H101            7.5143130758       34.4353172692       40.4451236403  MEMB      89              0.0000000000
     11831        95  POPC      C211            9.6301345707       34.3224209140       39.8693045688  MEMB      89              0.0000000000
     11832        95  POPC      H11R           10.2109832242       34.3276733205       38.9219626105  MEMB      89              0.0000000000
     11833        95  POPC      H11S            9.6506978564       33.2675409052       40.2210778366  MEMB      89              0.0000000000
     11834        95  POPC      C212           10.4034112382       35.1667123289       40.9058109086  MEMB      89              0.0000000000
     11835        95  POPC      H12R           10.6753009250       36.1400240990       40.4351435400  MEMB      89              0.0000000000
     11836        95  POPC      H12S           11.3511113074       34.6364769398       41.1466054161  MEMB      89              0.0000000000
     11837        95  POPC      C213            9.6575510011       35.4693897409       42.2173721476  MEMB      89              0.0000000000
     11838        95  POPC      H13R            8.8064252919       36.1353848475       41.9599128866  MEMB      89              0.0000000000
     11839        95  POPC      H13S           10.3228147663       36.0490786588       42.8962897871  MEMB      89              0.0000000000
     11840        95  POPC      C214            9.0926946465       34.2558693577       42.9714131702  MEMB      89              0.0000000000
     11841        95  POPC      H14R            8.6583128222       33.5110390779       42.2744754523  MEMB      89              0.0000000000
     11842        95  POPC      H14S            8.2497998936       34.6193197266       43.6061830380  MEMB      89              0.0000000000
     11843        95  POPC      C215           10.1005490552       33.5814704571       43.9102760835  MEMB      89              0.0000000000
     11844        95  POPC      H15R           10.6303246495       34.3655766782       44.4991357720  MEMB      89              0.0000000000
     11845        95  POPC      H15S           10.8609166223       33.0241333173       43.3199262060  MEMB      89              0.0000000000
     11846        95  POPC      C216            9.3854285519       32.6464567843       44.8935609655  MEMB      89              0.0000000000
     11847        95  POPC      H16R            8.8346799393       31.8668569488       44.3233201207  MEMB      89              0.0000000000
     11848        95  POPC      H16S            8.6413092371       33.2505831539       45.4600905368  MEMB      89              0.0000000000
     11849        95  POPC      C217           10.3272808104       31.9660623826       45.8888004036  MEMB      89              0.0000000000
     11850        95  POPC      H17R           10.9093140489       32.7428916934       46.4325623796  MEMB      89              0.0000000000
     11851        95  POPC      H17S           11.0433742082       31.3498821690       45.3161812521  MEMB      89              0.0000000000
     11852        95  POPC      C218            9.6193339493       31.0587339680       46.8937283097  MEMB      89              0.0000000000
     11853        95  POPC      H18R           10.3546450689       30.5902975099       47.5823411127  MEMB      89              0.0000000000
     11854        95  POPC      H18S            9.0681204402       30.2487606365       46.3690328106  MEMB      89              0.0000000000
     11855        95  POPC      H18T            8.8958187090       31.6442554709       47.5003634385  MEMB      89              0.0000000000
     11856        95  POPC      C33            12.8222233729       34.2230088423       31.9988931212  MEMB      89              0.0000000000
     11857        95  POPC      H3X            13.3172506048       34.5006053494       31.0393632460  MEMB      89              0.0000000000
     11858        95  POPC      H3Y            13.6365826103       33.8917480093       32.6806423137  MEMB      89              0.0000000000
     11859        95  POPC      C34            12.1814573752       35.4780163887       32.6242870643  MEMB      89              0.0000000000
     11860        95  POPC      H4X            11.4031177447       35.8701245193       31.9308133233  MEMB      89              0.0000000000
     11861        95  POPC      H4Y            12.9692517797       36.2620482087       32.7062973743  MEMB      89              0.0000000000
     11862        95  POPC      C35            11.5472550568       35.2827007243       34.0166709063  MEMB      89              0.0000000000
     11863        95  POPC      H5X            10.6471072387       34.6362400485       33.9235674999  MEMB      89              0.0000000000
     11864        95  POPC      H5Y            11.1972002931       36.2710960948       34.3911239915  MEMB      89              0.0000000000
     11865        95  POPC      C36            12.4915430309       34.6702846534       35.0648731108  MEMB      89              0.0000000000
     11866        95  POPC      H6X            13.4200572088       35.2793225904       35.1246131424  MEMB      89              0.0000000000
     11867        95  POPC      H6Y            12.7626153309       33.6408888768       34.7375650726  MEMB      89              0.0000000000
     11868        95  POPC      C37            11.8626952492       34.5718373272       36.4644436081  MEMB      89              0.0000000000
     11869        95  POPC      H7X            12.1731372307       33.6235539410       36.9576436202  MEMB      89              0.0000000000
     11870        95  POPC      H7Y            10.7634796388       34.5069247520       36.3196572609  MEMB      89              0.0000000000
     11871        95  POPC      C38            12.2337050418       35.7481384725       37.3875115408  MEMB      89              0.0000000000
     11872        95  POPC      H8X            11.3429441938       36.0681382524       37.9709886288  MEMB      89              0.0000000000
     11873        95  POPC      H8Y            12.5423772398       36.6220043873       36.7738330156  MEMB      89              0.0000000000
     11874        95  POPC      C39            13.3280310377       35.3971378704       38.4070497263  MEMB      89              0.0000000000
     11875        95  POPC      H9X            14.2198573708       35.0065397784       37.8720572823  MEMB      89              0.0000000000
     11876        95  POPC      H9Y            12.9492496063       34.5974304480       39.0829321260  MEMB      89              0.0000000000
     11877        95  POPC      C310           13.7562993478       36.6089385684       39.2412532494  MEMB      89              0.0000000000
     11878        95  POPC      H10X           12.8594281652       37.1180730168       39.6611603513  MEMB      89              0.0000000000
     11879        95  POPC      H10Y           14.2568445055       37.3335087122       38.5576464060  MEMB      89              0.0000000000
     11880        95  POPC      C311           14.7193111298       36.2578159246       40.3844627186  MEMB      89              0.0000000000
     11881        95  POPC      H11X           15.2762447638       37.1833431910       40.6541959984  MEMB      89              0.0000000000
     11882        95  POPC      H11Y           15.4741344339       35.5149806424       40.0505558956  MEMB      89              0.0000000000
     11883        95  POPC      C312           14.0064307111       35.7729971981       41.6550914808  MEMB      89              0.0000000000
     11884        95  POPC      H12X           13.6458137527       34.7303811560       41.5225644960  MEMB      89              0.0000000000
     11885        95  POPC      H12Y           13.1160281765       36.4201816618       41.8338438526  MEMB      89              0.0000000000
     11886        95  POPC      C313           14.9179586291       35.8752378764       42.8851873799  MEMB      89              0.0000000000
     11887        95  POPC      H13X           15.3777216151       36.8910742671       42.8789193023  MEMB      89              0.0000000000
     11888        95  POPC      H13Y           15.7485913348       35.1426857987       42.8083676869  MEMB      89              0.0000000000
     11889        95  POPC      C314           14.1728824129       35.7287641630       44.2209571992  MEMB      89              0.0000000000
     11890        95  POPC      H14X           13.2629379031       36.3695664799       44.2038041462  MEMB      89              0.0000000000
     11891        95  POPC      H14Y           14.8439092900       36.1178515375       45.0197139669  MEMB      89              0.0000000000
     11892        95  POPC      C315           13.7765295365       34.2925804219       44.5904536532  MEMB      89              0.0000000000
     11893        95  POPC      H15X           13.1368118826       33.8630011533       43.7870403244  MEMB      89              0.0000000000
     11894        95  POPC      H15Y           13.1585341957       34.3278768097       45.5181618696  MEMB      89              0.0000000000
     11895        95  POPC      C316           14.9754205475       33.3752928846       44.8394115977  MEMB      89              0.0000000000
     11896        95  POPC      H16X           14.6438811647       32.3900962798       45.2248216195  MEMB      89              0.0000000000
     11897        95  POPC      H16Y           15.6599911543       33.8296790736       45.5857410419  MEMB      89              0.0000000000
     11898        95  POPC      H16Z           15.5408432020       33.2029298665       43.9000906112  MEMB      89              0.0000000000
     11899        96  POPC      N              19.9985884104       51.2877342636       24.5974870789  MEMB      90              0.0000000000
     11900        96  POPC      C12            18.7978531202       50.7309313753       25.3635010583  MEMB      90              0.0000000000
     11901        96  POPC      H12A           17.8899364500       50.8759965743       24.7924068758  MEMB      90              0.0000000000
     11902        96  POPC      H12B           18.7124459947       51.2882579474       26.2996064168  MEMB      90              0.0000000000
     11903        96  POPC      C13            20.2212052234       50.4713134207       23.3590744096  MEMB      90              0.0000000000
     11904        96  POPC      H13A           19.4802590877       50.6482324364       22.5907364270  MEMB      90              0.0000000000
     11905        96  POPC      H13B           21.2004894805       50.6804222219       22.9395035646  MEMB      90              0.0000000000
     11906        96  POPC      H13C           20.2129175604       49.4147175715       23.6308978221  MEMB      90              0.0000000000
     11907        96  POPC      C14            19.8031019132       52.7398070401       24.2547620819  MEMB      90              0.0000000000
     11908        96  POPC      H14A           19.4741048826       53.3183634737       25.1114161778  MEMB      90              0.0000000000
     11909        96  POPC      H14B           20.7276309302       53.1845938552       23.8865164224  MEMB      90              0.0000000000
     11910        96  POPC      H14C           19.0515116665       52.8431896874       23.4789728073  MEMB      90              0.0000000000
     11911        96  POPC      C15            21.2129973933       51.1407524577       25.4614401082  MEMB      90              0.0000000000
     11912        96  POPC      H15A           21.3403785320       50.0849353058       25.6982141255  MEMB      90              0.0000000000
     11913        96  POPC      H15B           21.0687902460       51.5913117485       26.4472456613  MEMB      90              0.0000000000
     11914        96  POPC      H15C           22.1208564895       51.5181228653       25.0237118074  MEMB      90              0.0000000000
     11915        96  POPC      C11            18.8204005147       49.2335820964       25.7935314776  MEMB      90              0.0000000000
     11916        96  POPC      H11A           19.0569408837       48.5877495568       24.9207295777  MEMB      90              0.0000000000
     11917        96  POPC      H11B           17.7903156301       48.9593298244       26.1211337394  MEMB      90              0.0000000000
     11918        96  POPC      P              19.5562311402       49.6377920855       28.2684931094  MEMB      90              0.0000000000
     11919        96  POPC      O13            19.8006361805       51.0825991821       28.0536903211  MEMB      90              0.0000000000
     11920        96  POPC      O14            20.3382613281       48.9483083959       29.3142471899  MEMB      90              0.0000000000
     11921        96  POPC      O12            19.7521602428       48.9601907191       26.8402034438  MEMB      90              0.0000000000
     11922        96  POPC      O11            18.0328804284       49.3992362512       28.5608648495  MEMB      90              0.0000000000
     11923        96  POPC      C1             17.4966897815       48.0835773886       28.7556764678  MEMB      90              0.0000000000
     11924        96  POPC      HA             18.2211752682       47.4178389371       29.2857305673  MEMB      90              0.0000000000
     11925        96  POPC      HB             17.2682651116       47.6204312223       27.7704420148  MEMB      90              0.0000000000
     11926        96  POPC      C2             16.1678614903       48.0818453244       29.5868043746  MEMB      90              0.0000000000
     11927        96  POPC      HS             15.3408870248       47.7612394119       28.9167046953  MEMB      90              0.0000000000
     11928        96  POPC      O21            15.8619382972       49.3770087885       30.1125406258  MEMB      90              0.0000000000
     11929        96  POPC      C21            15.5935293507       50.3399492421       29.2379153953  MEMB      90              0.0000000000
     11930        96  POPC      O22            15.2342225681       50.2179964494       28.0834894225  MEMB      90              0.0000000000
     11931        96  POPC      C22            15.7882684430       51.6650892938       29.9503640170  MEMB      90              0.0000000000
     11932        96  POPC      H2R            15.3849503879       51.4850199751       30.9637325522  MEMB      90              0.0000000000
     11933        96  POPC      H2S            15.1951538368       52.4491813677       29.4425957289  MEMB      90              0.0000000000
     11934        96  POPC      C3             16.2283662423       47.0490638551       30.7686353169  MEMB      90              0.0000000000
     11935        96  POPC      HX             16.2501191210       46.0373086155       30.3056743414  MEMB      90              0.0000000000
     11936        96  POPC      HY             15.2843382875       47.1299164308       31.3525672616  MEMB      90              0.0000000000
     11937        96  POPC      O31            17.4187132825       47.2020465953       31.5787385173  MEMB      90              0.0000000000
     11938        96  POPC      C31            17.2937899379       47.5180232013       32.8588993324  MEMB      90              0.0000000000
     11939        96  POPC      O32            16.2537474741       47.5298055349       33.4927237554  MEMB      90              0.0000000000
     11940        96  POPC      C32            18.6666000889       47.9019965230       33.3982748878  MEMB      90              0.0000000000
     11941        96  POPC      H2X            18.6184819861       48.9695442286       33.6991026815  MEMB      90              0.0000000000
     11942        96  POPC      H2Y            19.4186168374       47.8049003937       32.5861981897  MEMB      90              0.0000000000
     11943        96  POPC      C23            17.2656894064       52.0788255004       30.1186790068  MEMB      90              0.0000000000
     11944        96  POPC      H3R            17.7421426964       52.2323504754       29.1243323557  MEMB      90              0.0000000000
     11945        96  POPC      H3S            17.8242307312       51.2539372669       30.6220708275  MEMB      90              0.0000000000
     11946        96  POPC      C24            17.4071950045       53.3467120282       30.9702220399  MEMB      90              0.0000000000
     11947        96  POPC      H4R            16.9768045467       54.2024028924       30.4002344893  MEMB      90              0.0000000000
     11948        96  POPC      H4S            18.4874847296       53.5603929934       31.1260407809  MEMB      90              0.0000000000
     11949        96  POPC      C25            16.6868950955       53.2758964783       32.3298497475  MEMB      90              0.0000000000
     11950        96  POPC      H5R            15.6318564504       53.0085727644       32.1786005904  MEMB      90              0.0000000000
     11951        96  POPC      H5S            16.6649243398       54.2867323974       32.7829943314  MEMB      90              0.0000000000
     11952        96  POPC      C26            17.2916936847       52.2899704940       33.3368060187  MEMB      90              0.0000000000
     11953        96  POPC      H6R            18.3507545713       52.5730079708       33.5169989977  MEMB      90              0.0000000000
     11954        96  POPC      H6S            17.2963525568       51.2610295384       32.9121231851  MEMB      90              0.0000000000
     11955        96  POPC      C27            16.5072748886       52.2851948954       34.6600419173  MEMB      90              0.0000000000
     11956        96  POPC      H7R            15.7276265024       51.4894006234       34.6212954809  MEMB      90              0.0000000000
     11957        96  POPC      H7S            15.9943575659       53.2668159703       34.7642486814  MEMB      90              0.0000000000
     11958        96  POPC      C28            17.3601904783       52.1344917285       35.9254790116  MEMB      90              0.0000000000
     11959        96  POPC      H8R            16.6787683441       52.0289649508       36.7992714497  MEMB      90              0.0000000000
     11960        96  POPC      H8S            17.9264837690       53.0806053780       36.0786889258  MEMB      90              0.0000000000
     11961        96  POPC      C29            18.2574093297       50.9317251095       35.8306099477  MEMB      90              0.0000000000
     11962        96  POPC      H91            17.7369783926       49.9615185673       35.7811924827  MEMB      90              0.0000000000
     11963        96  POPC      C210           19.6004385257       50.9566655100       35.8052742422  MEMB      90              0.0000000000
     11964        96  POPC      H101           20.1477443399       50.0059026008       35.7781839504  MEMB      90              0.0000000000
     11965        96  POPC      C211           20.4665562607       52.1858402159       35.8693440485  MEMB      90              0.0000000000
     11966        96  POPC      H11R           19.9488003330       53.0712674577       35.4371746938  MEMB      90              0.0000000000
     11967        96  POPC      H11S           21.3952760744       52.0414669485       35.2770562351  MEMB      90              0.0000000000
     11968        96  POPC      C212           20.8285271939       52.4968527668       37.3302355421  MEMB      90              0.0000000000
     11969        96  POPC      H12R           19.8961495974       52.6152646661       37.9261573493  MEMB      90              0.0000000000
     11970        96  POPC      H12S           21.3579522117       53.4689689851       37.3652671417  MEMB      90              0.0000000000
     11971        96  POPC      C213           21.7532307520       51.4625052845       37.9838883962  MEMB      90              0.0000000000
     11972        96  POPC      H13R           22.7065802106       51.4223296434       37.4098454430  MEMB      90              0.0000000000
     11973        96  POPC      H13S           21.2885609365       50.4559873891       37.9494050150  MEMB      90              0.0000000000
     11974        96  POPC      C214           22.0656730173       51.8055290101       39.4441103732  MEMB      90              0.0000000000
     11975        96  POPC      H14R           22.3743307254       52.8714820562       39.5075706326  MEMB      90              0.0000000000
     11976        96  POPC      H14S           22.9222790306       51.1789876438       39.7827736302  MEMB      90              0.0000000000
     11977        96  POPC      C215           20.8822172165       51.5513857230       40.3855714254  MEMB      90              0.0000000000
     11978        96  POPC      H15R           20.6239366311       50.4716036438       40.3330074782  MEMB      90              0.0000000000
     11979        96  POPC      H15S           19.9902002024       52.1222423772       40.0448983045  MEMB      90              0.0000000000
     11980        96  POPC      C216           21.1888644585       51.9344267215       41.8376701561  MEMB      90              0.0000000000
     11981        96  POPC      H16R           21.0635747424       53.0361555930       41.9445026629  MEMB      90              0.0000000000
     11982        96  POPC      H16S           22.2521151168       51.6982798352       42.0708730150  MEMB      90              0.0000000000
     11983        96  POPC      C217           20.3030848556       51.2160830518       42.8648337205  MEMB      90              0.0000000000
     11984        96  POPC      H17R           20.4316400972       51.7397983778       43.8367285610  MEMB      90              0.0000000000
     11985        96  POPC      H17S           20.6772335643       50.1773188299       43.0060034636  MEMB      90              0.0000000000
     11986        96  POPC      C218           18.8173993172       51.1337076227       42.5055835888  MEMB      90              0.0000000000
     11987        96  POPC      H18R           18.6559938771       50.4192418024       41.6733700889  MEMB      90              0.0000000000
     11988        96  POPC      H18S           18.4259087139       52.1191683134       42.1845391444  MEMB      90              0.0000000000
     11989        96  POPC      H18T           18.2287007844       50.7832423683       43.3797988233  MEMB      90              0.0000000000
     11990        96  POPC      C33            19.0763969571       47.0354013637       34.6046925814  MEMB      90              0.0000000000
     11991        96  POPC      H3X            18.9246245670       45.9525344398       34.3838125929  MEMB      90              0.0000000000
     11992        96  POPC      H3Y            18.4295458796       47.2885821059       35.4713495494  MEMB      90              0.0000000000
     11993        96  POPC      C34            20.5574174556       47.2329474864       34.9435338019  MEMB      90              0.0000000000
     11994        96  POPC      H4X            20.8362499148       48.3054135137       34.9179693147  MEMB      90              0.0000000000
     11995        96  POPC      H4Y            21.1338882998       46.7436553187       34.1240781964  MEMB      90              0.0000000000
     11996        96  POPC      C35            20.9584997007       46.6082766629       36.2836074034  MEMB      90              0.0000000000
     11997        96  POPC      H5X            22.0265493061       46.2900467575       36.2106093535  MEMB      90              0.0000000000
     11998        96  POPC      H5Y            20.3567652056       45.6935901407       36.4397247940  MEMB      90              0.0000000000
     11999        96  POPC      C36            20.8848533210       47.5622260450       37.4912476068  MEMB      90              0.0000000000
     12000        96  POPC      H6X            21.5272211306       48.4405168317       37.2590773836  MEMB      90              0.0000000000
     12001        96  POPC      H6Y            21.3462769682       47.0513519182       38.3682406639  MEMB      90              0.0000000000
     12002        96  POPC      C37            19.4923043400       48.0692182891       37.9161237128  MEMB      90              0.0000000000
     12003        96  POPC      H7X            18.9946033356       48.6075868631       37.0887262527  MEMB      90              0.0000000000
     12004        96  POPC      H7Y            19.6458273682       48.8045288092       38.7399508804  MEMB      90              0.0000000000
     12005        96  POPC      C38            18.5560631170       46.9669631185       38.4209314147  MEMB      90              0.0000000000
     12006        96  POPC      H8X            19.1853613558       46.2543556966       38.9925286774  MEMB      90              0.0000000000
     12007        96  POPC      H8Y            18.1123100907       46.4256098304       37.5570073466  MEMB      90              0.0000000000
     12008        96  POPC      C39            17.4427884162       47.4388688143       39.3754886434  MEMB      90              0.0000000000
     12009        96  POPC      H9X            16.6509920438       46.6548918704       39.3800286398  MEMB      90              0.0000000000
     12010        96  POPC      H9Y            16.9880522613       48.3849592203       39.0128880929  MEMB      90              0.0000000000
     12011        96  POPC      C310           17.9780051031       47.5711856333       40.8092798647  MEMB      90              0.0000000000
     12012        96  POPC      H10X           18.6728120491       48.4348457352       40.8732636971  MEMB      90              0.0000000000
     12013        96  POPC      H10Y           18.5852197561       46.6576433283       41.0119716221  MEMB      90              0.0000000000
     12014        96  POPC      C311           16.9284625780       47.6435938207       41.9329591246  MEMB      90              0.0000000000
     12015        96  POPC      H11X           16.0585320143       46.9951379966       41.6852171069  MEMB      90              0.0000000000
     12016        96  POPC      H11Y           16.5619260496       48.6870062617       42.0440153460  MEMB      90              0.0000000000
     12017        96  POPC      C312           17.5477719008       47.1425657895       43.2511631413  MEMB      90              0.0000000000
     12018        96  POPC      H12X           18.5162408340       47.6573102133       43.4024000267  MEMB      90              0.0000000000
     12019        96  POPC      H12Y           17.7703180806       46.0577904087       43.1246727425  MEMB      90              0.0000000000
     12020        96  POPC      C313           16.6951430553       47.3207607839       44.5156014922  MEMB      90              0.0000000000
     12021        96  POPC      H13X           16.9206960769       46.4856516110       45.2173380915  MEMB      90              0.0000000000
     12022        96  POPC      H13Y           15.6206375194       47.2275266167       44.2450015096  MEMB      90              0.0000000000
     12023        96  POPC      C314           16.9438975799       48.6471511015       45.2612507395  MEMB      90              0.0000000000
     12024        96  POPC      H14X           16.2395640825       48.6976034015       46.1205557402  MEMB      90              0.0000000000
     12025        96  POPC      H14Y           16.6986047465       49.4910783467       44.5788263900  MEMB      90              0.0000000000
     12026        96  POPC      C315           18.3677697924       48.8527080718       45.8154600496  MEMB      90              0.0000000000
     12027        96  POPC      H15X           18.4016061704       49.8489030255       46.3095288503  MEMB      90              0.0000000000
     12028        96  POPC      H15Y           19.0924197334       48.9042330122       44.9738146661  MEMB      90              0.0000000000
     12029        96  POPC      C316           18.8353313534       47.7997359851       46.8259183408  MEMB      90              0.0000000000
     12030        96  POPC      H16X           18.8659571478       46.7904260721       46.3667726806  MEMB      90              0.0000000000
     12031        96  POPC      H16Y           18.1517295190       47.7612467738       47.6994753204  MEMB      90              0.0000000000
     12032        96  POPC      H16Z           19.8554402196       48.0473333706       47.1911079655  MEMB      90              0.0000000000
     12033        97  POPC      N              10.6287668255       30.4250442912       25.8122916085  MEMB      91              0.0000000000
     12034        97  POPC      C12            11.3182585853       29.4064951505       26.7191966145  MEMB      91              0.0000000000
     12035        97  POPC      H12A           10.5979249239       28.9928885700       27.4239494536  MEMB      91              0.0000000000
     12036        97  POPC      H12B           12.0684934522       29.9305837926       27.2994290210  MEMB      91              0.0000000000
     12037        97  POPC      C13            11.6310010252       30.9175152489       24.8157293023  MEMB      91              0.0000000000
     12038        97  POPC      H13A           11.8935600214       30.1070264231       24.1387472030  MEMB      91              0.0000000000
     12039        97  POPC      H13B           11.2336053367       31.7214208819       24.2125803570  MEMB      91              0.0000000000
     12040        97  POPC      H13C           12.5430536455       31.2670789642       25.2818766032  MEMB      91              0.0000000000
     12041        97  POPC      C14             9.4682008849       29.8304948068       25.0813993671  MEMB      91              0.0000000000
     12042        97  POPC      H14A            9.7584480486       28.9322025626       24.5422143758  MEMB      91              0.0000000000
     12043        97  POPC      H14B            8.6886768134       29.5226000018       25.7711415696  MEMB      91              0.0000000000
     12044        97  POPC      H14C            9.0331546322       30.5547372809       24.4065843642  MEMB      91              0.0000000000
     12045        97  POPC      C15            10.1070014418       31.5612470903       26.6339413790  MEMB      91              0.0000000000
     12046        97  POPC      H15A            9.6579350069       32.3161420353       25.9959508350  MEMB      91              0.0000000000
     12047        97  POPC      H15B           10.9017129718       32.0382185676       27.2043291386  MEMB      91              0.0000000000
     12048        97  POPC      H15C            9.3592004820       31.2178242058       27.3415321730  MEMB      91              0.0000000000
     12049        97  POPC      C11            12.0120090050       28.1812160330       26.0621688316  MEMB      91              0.0000000000
     12050        97  POPC      H11A           12.5205777601       27.5832327707       26.8577267723  MEMB      91              0.0000000000
     12051        97  POPC      H11B           12.8180729712       28.5280226068       25.3790687256  MEMB      91              0.0000000000
     12052        97  POPC      P              10.0540290030       26.4589282200       26.1061156254  MEMB      91              0.0000000000
     12053        97  POPC      O13            10.5888061147       25.0884445334       26.1915656019  MEMB      91              0.0000000000
     12054        97  POPC      O14             8.7474487333       26.6616478217       25.4195379891  MEMB      91              0.0000000000
     12055        97  POPC      O12            11.0864113549       27.3789547104       25.3332320543  MEMB      91              0.0000000000
     12056        97  POPC      O11             9.9251923698       27.1044426174       27.5599317309  MEMB      91              0.0000000000
     12057        97  POPC      C1              8.6219705508       27.6391131310       27.8688173388  MEMB      91              0.0000000000
     12058        97  POPC      HA              7.8100371705       26.9246197088       27.5717843051  MEMB      91              0.0000000000
     12059        97  POPC      HB              8.4367836158       28.5963529721       27.3362070240  MEMB      91              0.0000000000
     12060        97  POPC      C2              8.3556700690       27.8779926053       29.3747377111  MEMB      91              0.0000000000
     12061        97  POPC      HS              7.2670433095       27.6421467625       29.4772630405  MEMB      91              0.0000000000
     12062        97  POPC      O21             8.6679676245       29.2356230450       29.7214107389  MEMB      91              0.0000000000
     12063        97  POPC      C21             7.8498397940       29.7164221282       30.6428522537  MEMB      91              0.0000000000
     12064        97  POPC      O22             6.8530411806       29.1583962008       31.0656044019  MEMB      91              0.0000000000
     12065        97  POPC      C22             8.4270657528       31.0151366601       31.1766529120  MEMB      91              0.0000000000
     12066        97  POPC      H2R             7.6220897252       31.7778928557       31.1970003413  MEMB      91              0.0000000000
     12067        97  POPC      H2S             9.2172299034       31.3511510714       30.4787167864  MEMB      91              0.0000000000
     12068        97  POPC      C3              9.1316944249       26.9123193382       30.3120832398  MEMB      91              0.0000000000
     12069        97  POPC      HX              9.2286781461       25.9815251179       29.7150180237  MEMB      91              0.0000000000
     12070        97  POPC      HY              8.4624131613       26.7055462003       31.1818669974  MEMB      91              0.0000000000
     12071        97  POPC      O31            10.4628124623       27.3297926929       30.6990745687  MEMB      91              0.0000000000
     12072        97  POPC      C31            10.7154200137       27.3467257060       32.0033275980  MEMB      91              0.0000000000
     12073        97  POPC      O32             9.8903661224       27.3375066838       32.8966940658  MEMB      91              0.0000000000
     12074        97  POPC      C32            12.2375032953       27.2950025089       32.1765511167  MEMB      91              0.0000000000
     12075        97  POPC      H2X            12.6629176659       28.2520237214       31.8182345790  MEMB      91              0.0000000000
     12076        97  POPC      H2Y            12.6167119873       26.4731218163       31.5312084617  MEMB      91              0.0000000000
     12077        97  POPC      C23             9.0189782012       30.7898110451       32.5851445135  MEMB      91              0.0000000000
     12078        97  POPC      H3R            10.1221183989       30.9163257841       32.5608449654  MEMB      91              0.0000000000
     12079        97  POPC      H3S             8.8346485941       29.7430641251       32.9334568571  MEMB      91              0.0000000000
     12080        97  POPC      C24             8.4187857535       31.7221840969       33.6412877886  MEMB      91              0.0000000000
     12081        97  POPC      H4R             7.3127604756       31.5783631632       33.6423939738  MEMB      91              0.0000000000
     12082        97  POPC      H4S             8.6212976544       32.7858893956       33.3835395425  MEMB      91              0.0000000000
     12083        97  POPC      C25             8.9718669440       31.3894920628       35.0297795382  MEMB      91              0.0000000000
     12084        97  POPC      H5R            10.0348278650       31.7048541643       35.1129132373  MEMB      91              0.0000000000
     12085        97  POPC      H5S             8.9451140542       30.2790310380       35.1522355784  MEMB      91              0.0000000000
     12086        97  POPC      C26             8.1514669415       32.0006339176       36.1695951852  MEMB      91              0.0000000000
     12087        97  POPC      H6R             7.0900541643       31.6908365823       36.0331632055  MEMB      91              0.0000000000
     12088        97  POPC      H6S             8.1918664584       33.1107242692       36.1330557199  MEMB      91              0.0000000000
     12089        97  POPC      C27             8.6370631711       31.4920826358       37.5312802032  MEMB      91              0.0000000000
     12090        97  POPC      H7R             9.4752164155       32.1280689146       37.8920812169  MEMB      91              0.0000000000
     12091        97  POPC      H7S             9.0498106535       30.4650864888       37.3811356367  MEMB      91              0.0000000000
     12092        97  POPC      C28             7.5078053951       31.4095430229       38.5688098333  MEMB      91              0.0000000000
     12093        97  POPC      H8R             6.6799213770       30.7976082366       38.1439426889  MEMB      91              0.0000000000
     12094        97  POPC      H8S             7.0834339511       32.4185906961       38.7478246416  MEMB      91              0.0000000000
     12095        97  POPC      C29             8.0201558985       30.8019493135       39.8465987201  MEMB      91              0.0000000000
     12096        97  POPC      H91             8.3040461516       31.5116330782       40.6395262693  MEMB      91              0.0000000000
     12097        97  POPC      C210            8.1504189515       29.4836609251       40.0657196970  MEMB      91              0.0000000000
     12098        97  POPC      H101            8.5256595398       29.1493136731       41.0435713483  MEMB      91              0.0000000000
     12099        97  POPC      C211            7.8127253599       28.3802707113       39.0894694348  MEMB      91              0.0000000000
     12100        97  POPC      H11R            7.6147490111       28.7732491321       38.0666335409  MEMB      91              0.0000000000
     12101        97  POPC      H11S            6.8722092032       27.8950322885       39.4124621625  MEMB      91              0.0000000000
     12102        97  POPC      C212            8.8969181430       27.2888424710       38.9478600342  MEMB      91              0.0000000000
     12103        97  POPC      H12R            9.7651614636       27.7407078737       38.4227433537  MEMB      91              0.0000000000
     12104        97  POPC      H12S            8.5006643500       26.4872532051       38.2850844723  MEMB      91              0.0000000000
     12105        97  POPC      C213            9.3630783831       26.6538014896       40.2737548965  MEMB      91              0.0000000000
     12106        97  POPC      H13R            9.8523139545       27.4425859424       40.8827739282  MEMB      91              0.0000000000
     12107        97  POPC      H13S           10.1454518528       25.8899941128       40.0642539323  MEMB      91              0.0000000000
     12108        97  POPC      C214            8.2192834107       25.9895801223       41.0632654779  MEMB      91              0.0000000000
     12109        97  POPC      H14R            8.0162359498       24.9947019986       40.6065847158  MEMB      91              0.0000000000
     12110        97  POPC      H14S            7.2906339858       26.5830356846       40.9593233930  MEMB      91              0.0000000000
     12111        97  POPC      C215            8.4818761499       25.8117557414       42.5682936090  MEMB      91              0.0000000000
     12112        97  POPC      H15R            9.4279049226       25.2373972933       42.6676258819  MEMB      91              0.0000000000
     12113        97  POPC      H15S            7.6742568519       25.1872103773       43.0117391383  MEMB      91              0.0000000000
     12114        97  POPC      C216            8.5846927582       27.1181725608       43.3812155821  MEMB      91              0.0000000000
     12115        97  POPC      H16R            9.0593958360       27.9189999614       42.7785271362  MEMB      91              0.0000000000
     12116        97  POPC      H16S            9.2612441478       26.9297949557       44.2430620855  MEMB      91              0.0000000000
     12117        97  POPC      C217            7.2600758280       27.6288198433       43.9750531559  MEMB      91              0.0000000000
     12118        97  POPC      H17R            7.4767724888       28.5447616125       44.5706621477  MEMB      91              0.0000000000
     12119        97  POPC      H17S            6.8642123167       26.8747871784       44.6858455169  MEMB      91              0.0000000000
     12120        97  POPC      C218            6.1552251446       27.9257548864       42.9630017173  MEMB      91              0.0000000000
     12121        97  POPC      H18R            6.5172954400       28.6076010017       42.1665817401  MEMB      91              0.0000000000
     12122        97  POPC      H18S            5.2885704336       28.4041958507       43.4622072915  MEMB      91              0.0000000000
     12123        97  POPC      H18T            5.8018403451       26.9850138136       42.4898913029  MEMB      91              0.0000000000
     12124        97  POPC      C33            12.6650840042       27.0150491590       33.6314991049  MEMB      91              0.0000000000
     12125        97  POPC      H3X            13.7439473409       26.7330823824       33.6534973532  MEMB      91              0.0000000000
     12126        97  POPC      H3Y            12.0952140442       26.1466499957       34.0344779860  MEMB      91              0.0000000000
     12127        97  POPC      C34            12.4716743107       28.2279575830       34.5439709714  MEMB      91              0.0000000000
     12128        97  POPC      H4X            11.4331369105       28.6177641388       34.4290337706  MEMB      91              0.0000000000
     12129        97  POPC      H4Y            13.1796000094       29.0369063501       34.2569178125  MEMB      91              0.0000000000
     12130        97  POPC      C35            12.6714084645       27.8653059718       36.0151397272  MEMB      91              0.0000000000
     12131        97  POPC      H5X            13.7292388908       27.5579273581       36.1773511647  MEMB      91              0.0000000000
     12132        97  POPC      H5Y            12.0192603911       26.9972759885       36.2694451230  MEMB      91              0.0000000000
     12133        97  POPC      C36            12.3164496025       29.0377166209       36.9298888955  MEMB      91              0.0000000000
     12134        97  POPC      H6X            11.2581056875       29.3382489124       36.7576500970  MEMB      91              0.0000000000
     12135        97  POPC      H6Y            12.9634614334       29.9064853205       36.6703592005  MEMB      91              0.0000000000
     12136        97  POPC      C37            12.5072601714       28.6902332679       38.4047448281  MEMB      91              0.0000000000
     12137        97  POPC      H7X            13.5345682388       28.2856896315       38.5376022351  MEMB      91              0.0000000000
     12138        97  POPC      H7Y            11.8097246381       27.8833886772       38.7109769029  MEMB      91              0.0000000000
     12139        97  POPC      C38            12.3340221438       29.9035110638       39.3228162187  MEMB      91              0.0000000000
     12140        97  POPC      H8X            11.2914842803       30.2879684060       39.2779641469  MEMB      91              0.0000000000
     12141        97  POPC      H8Y            13.0089522971       30.7091950681       38.9531057947  MEMB      91              0.0000000000
     12142        97  POPC      C39            12.7159131699       29.5449177363       40.7602614799  MEMB      91              0.0000000000
     12143        97  POPC      H9X            13.5549689654       28.8114340514       40.7053809106  MEMB      91              0.0000000000
     12144        97  POPC      H9Y            11.8680027008       29.0347399901       41.2677038567  MEMB      91              0.0000000000
     12145        97  POPC      C310           13.2125560387       30.7403936075       41.5741183100  MEMB      91              0.0000000000
     12146        97  POPC      H10X           12.3781373216       31.4393585688       41.8024553483  MEMB      91              0.0000000000
     12147        97  POPC      H10Y           13.9568662527       31.2933306004       40.9539372793  MEMB      91              0.0000000000
     12148        97  POPC      C311           13.9169060557       30.2865912108       42.8587960715  MEMB      91              0.0000000000
     12149        97  POPC      H11X           14.7155246485       31.0184991466       43.1069396068  MEMB      91              0.0000000000
     12150        97  POPC      H11Y           14.4066672271       29.3033547028       42.6877530597  MEMB      91              0.0000000000
     12151        97  POPC      C312           12.9831387802       30.2194844899       44.0674881116  MEMB      91              0.0000000000
     12152        97  POPC      H12X           11.9803659662       29.8572061288       43.7438354219  MEMB      91              0.0000000000
     12153        97  POPC      H12Y           12.8700140393       31.2596691915       44.4449352210  MEMB      91              0.0000000000
     12154        97  POPC      C313           13.4639093954       29.3138182771       45.2135993521  MEMB      91              0.0000000000
     12155        97  POPC      H13X           13.3062495729       28.2613642914       44.9196100045  MEMB      91              0.0000000000
     12156        97  POPC      H13Y           12.8362560910       29.4962569716       46.1131682569  MEMB      91              0.0000000000
     12157        97  POPC      C314           14.9421212753       29.4240068785       45.5955186879  MEMB      91              0.0000000000
     12158        97  POPC      H14X           15.1033198791       30.4234922144       46.0488563320  MEMB      91              0.0000000000
     12159        97  POPC      H14Y           15.5846418625       29.3399151762       44.6947934267  MEMB      91              0.0000000000
     12160        97  POPC      C315           15.3655291423       28.3176048575       46.5751299961  MEMB      91              0.0000000000
     12161        97  POPC      H15X           14.5492402965       28.1661645063       47.3158593340  MEMB      91              0.0000000000
     12162        97  POPC      H15Y           16.2596887703       28.6502307852       47.1406605379  MEMB      91              0.0000000000
     12163        97  POPC      C316           15.7278489568       26.9950411726       45.8947546544  MEMB      91              0.0000000000
     12164        97  POPC      H16X           15.9444644196       26.2141154196       46.6546927180  MEMB      91              0.0000000000
     12165        97  POPC      H16Y           16.6246329268       27.1235001269       45.2522345368  MEMB      91              0.0000000000
     12166        97  POPC      H16Z           14.8891256498       26.6467433693       45.2565324063  MEMB      91              0.0000000000
     12167        98  POPC      N              52.4304136015       43.9225808189       25.4290075593  MEMB      92              0.0000000000
     12168        98  POPC      C12            53.4764819599       43.0924357900       24.6969738667  MEMB      92              0.0000000000
     12169        98  POPC      H12A           53.3740543321       43.2168396170       23.6274645236  MEMB      92              0.0000000000
     12170        98  POPC      H12B           53.2822288305       42.0455384494       24.9126463774  MEMB      92              0.0000000000
     12171        98  POPC      C13            52.3757121880       43.4511925335       26.8509675973  MEMB      92              0.0000000000
     12172        98  POPC      H13A           51.7009410296       44.0473625621       27.4407898265  MEMB      92              0.0000000000
     12173        98  POPC      H13B           52.1100846808       42.3974671770       26.8959415308  MEMB      92              0.0000000000
     12174        98  POPC      H13C           53.3862509934       43.5224300573       27.2633082822  MEMB      92              0.0000000000
     12175        98  POPC      C14            52.8394747865       45.3712456424       25.3664307707  MEMB      92              0.0000000000
     12176        98  POPC      H14A           53.7596083673       45.5088604655       25.9406645917  MEMB      92              0.0000000000
     12177        98  POPC      H14B           53.0582145769       45.6748433057       24.3426538977  MEMB      92              0.0000000000
     12178        98  POPC      H14C           52.0620015250       46.0312772689       25.7251123366  MEMB      92              0.0000000000
     12179        98  POPC      C15            51.0923122426       43.6939405022       24.8336485597  MEMB      92              0.0000000000
     12180        98  POPC      H15A           51.0248463572       44.0487396783       23.8101549410  MEMB      92              0.0000000000
     12181        98  POPC      H15B           50.3198520456       44.1827467644       25.4132664975  MEMB      92              0.0000000000
     12182        98  POPC      H15C           50.8516040939       42.6226874081       24.7933497612  MEMB      92              0.0000000000
     12183        98  POPC      C11            54.9452143609       43.3585514008       25.0799410393  MEMB      92              0.0000000000
     12184        98  POPC      H11A           55.2688615908       44.3796080301       24.7747604886  MEMB      92              0.0000000000
     12185        98  POPC      H11B           55.5738196998       42.6213845311       24.5191656246  MEMB      92              0.0000000000
     12186        98  POPC      P              56.5240188669       43.1166236580       27.1155969236  MEMB      92              0.0000000000
     12187        98  POPC      O13            57.4065327205       42.4880594565       26.1158625696  MEMB      92              0.0000000000
     12188        98  POPC      O14            56.3991248938       42.5187998046       28.4660394603  MEMB      92              0.0000000000
     12189        98  POPC      O12            55.0876334107       43.2044427123       26.4865738524  MEMB      92              0.0000000000
     12190        98  POPC      O11            56.8709440464       44.6417247769       27.2827260062  MEMB      92              0.0000000000
     12191        98  POPC      C1             56.1078607693       45.4977825172       28.1423023259  MEMB      92              0.0000000000
     12192        98  POPC      HA             55.1618924933       45.0288947072       28.5061293318  MEMB      92              0.0000000000
     12193        98  POPC      HB             55.8422754375       46.4104256350       27.5634285847  MEMB      92              0.0000000000
     12194        98  POPC      C2             56.9128112077       45.9361963380       29.4008562639  MEMB      92              0.0000000000
     12195        98  POPC      HS             57.8516317429       46.4216989405       29.0434111923  MEMB      92              0.0000000000
     12196        98  POPC      O21            57.1410371803       44.8039164998       30.2566786053  MEMB      92              0.0000000000
     12197        98  POPC      C21            58.3843779481       44.3813450253       30.3670512330  MEMB      92              0.0000000000
     12198        98  POPC      O22            59.3668487923       44.9158898964       29.8760539214  MEMB      92              0.0000000000
     12199        98  POPC      C22            58.3832242687       43.1152305784       31.2400077105  MEMB      92              0.0000000000
     12200        98  POPC      H2R            58.3913807743       42.2669467932       30.5218366760  MEMB      92              0.0000000000
     12201        98  POPC      H2S            57.4386784249       43.0600557539       31.8170779834  MEMB      92              0.0000000000
     12202        98  POPC      C3             56.1200990993       46.9765438144       30.2366586280  MEMB      92              0.0000000000
     12203        98  POPC      HX             55.7879700436       47.7904987727       29.5595016728  MEMB      92              0.0000000000
     12204        98  POPC      HY             56.8228604202       47.4359186141       30.9705924449  MEMB      92              0.0000000000
     12205        98  POPC      O31            54.9602894630       46.3535348051       30.8416838082  MEMB      92              0.0000000000
     12206        98  POPC      C31            55.0936781828       46.0649713269       32.1406536336  MEMB      92              0.0000000000
     12207        98  POPC      O32            55.9186515992       46.5565362733       32.8887368515  MEMB      92              0.0000000000
     12208        98  POPC      C32            54.1013142447       44.9657106709       32.5254917712  MEMB      92              0.0000000000
     12209        98  POPC      H2X            54.6471626739       44.0046561895       32.5180273612  MEMB      92              0.0000000000
     12210        98  POPC      H2Y            53.3275457638       44.9023324218       31.7367241670  MEMB      92              0.0000000000
     12211        98  POPC      C23            59.6015332901       42.9985992754       32.1851932048  MEMB      92              0.0000000000
     12212        98  POPC      H3R            60.4728123092       43.5612471138       31.7809727346  MEMB      92              0.0000000000
     12213        98  POPC      H3S            59.8899892363       41.9185500880       32.2120860307  MEMB      92              0.0000000000
     12214        98  POPC      C24            59.3479632662       43.3966942500       33.6492598073  MEMB      92              0.0000000000
     12215        98  POPC      H4R            60.3173513841       43.3200990179       34.1915814823  MEMB      92              0.0000000000
     12216        98  POPC      H4S            58.6558458674       42.6559272176       34.1100707826  MEMB      92              0.0000000000
     12217        98  POPC      C25            58.7803510430       44.8016288707       33.8915568014  MEMB      92              0.0000000000
     12218        98  POPC      H5R            57.7270302899       44.8323347327       33.5321408680  MEMB      92              0.0000000000
     12219        98  POPC      H5S            59.3587492513       45.5616442066       33.3211772990  MEMB      92              0.0000000000
     12220        98  POPC      C26            58.8245322911       45.1505855809       35.3906177221  MEMB      92              0.0000000000
     12221        98  POPC      H6R            59.8806602952       45.2788312773       35.7070687530  MEMB      92              0.0000000000
     12222        98  POPC      H6S            58.4387069347       44.2827570245       35.9638663113  MEMB      92              0.0000000000
     12223        98  POPC      C27            58.0165066186       46.4024365329       35.7697377572  MEMB      92              0.0000000000
     12224        98  POPC      H7R            57.0934104242       46.4442284678       35.1521008393  MEMB      92              0.0000000000
     12225        98  POPC      H7S            58.6218471329       47.2962107020       35.5021442460  MEMB      92              0.0000000000
     12226        98  POPC      C28            57.6162423549       46.4432111147       37.2623544058  MEMB      92              0.0000000000
     12227        98  POPC      H8R            58.4918981358       46.1237526131       37.8671822252  MEMB      92              0.0000000000
     12228        98  POPC      H8S            56.8144580293       45.6950785612       37.4448458103  MEMB      92              0.0000000000
     12229        98  POPC      C29            57.1564010027       47.8190482238       37.6759992662  MEMB      92              0.0000000000
     12230        98  POPC      H91            57.2080478314       48.5756728051       36.8769597841  MEMB      92              0.0000000000
     12231        98  POPC      C210           56.7175856561       48.1964584240       38.8907394830  MEMB      92              0.0000000000
     12232        98  POPC      H101           56.4470449948       49.2529174963       39.0360595835  MEMB      92              0.0000000000
     12233        98  POPC      C211           56.5766719481       47.3474348469       40.1328856510  MEMB      92              0.0000000000
     12234        98  POPC      H11R           57.0924337486       47.8660696457       40.9705948818  MEMB      92              0.0000000000
     12235        98  POPC      H11S           57.0721559445       46.3566781528       40.0233694173  MEMB      92              0.0000000000
     12236        98  POPC      C212           55.1011418395       47.1135203326       40.5274509960  MEMB      92              0.0000000000
     12237        98  POPC      H12R           54.6951125311       46.2937160018       39.8922839037  MEMB      92              0.0000000000
     12238        98  POPC      H12S           54.4957678529       48.0257756518       40.3181126260  MEMB      92              0.0000000000
     12239        98  POPC      C213           54.8883699215       46.7622168934       42.0148926689  MEMB      92              0.0000000000
     12240        98  POPC      H13R           55.5618672177       45.9333920163       42.3193732894  MEMB      92              0.0000000000
     12241        98  POPC      H13S           53.8383870597       46.4100194347       42.1399324966  MEMB      92              0.0000000000
     12242        98  POPC      C214           55.0955184166       47.9766142197       42.9323573555  MEMB      92              0.0000000000
     12243        98  POPC      H14R           54.6601614941       48.8631317019       42.4139188900  MEMB      92              0.0000000000
     12244        98  POPC      H14S           56.1814242782       48.1663312096       43.0501554194  MEMB      92              0.0000000000
     12245        98  POPC      C215           54.4082531985       47.8986948483       44.3076234180  MEMB      92              0.0000000000
     12246        98  POPC      H15R           53.3593242205       47.5625440641       44.1961780252  MEMB      92              0.0000000000
     12247        98  POPC      H15S           54.3776486663       48.9412836855       44.7030768238  MEMB      92              0.0000000000
     12248        98  POPC      C216           55.1144163444       47.0307893367       45.3566307473  MEMB      92              0.0000000000
     12249        98  POPC      H16R           56.1927815240       46.9459737391       45.0888282468  MEMB      92              0.0000000000
     12250        98  POPC      H16S           54.6861008264       46.0041119400       45.3487136405  MEMB      92              0.0000000000
     12251        98  POPC      C217           55.0361258687       47.6302009749       46.7736963269  MEMB      92              0.0000000000
     12252        98  POPC      H17R           55.5808420678       48.6011724126       46.7521388514  MEMB      92              0.0000000000
     12253        98  POPC      H17S           55.5733622626       46.9468810103       47.4715819866  MEMB      92              0.0000000000
     12254        98  POPC      C218           53.6395485657       47.9024185079       47.3374011841  MEMB      92              0.0000000000
     12255        98  POPC      H18R           53.0759487633       48.6062466140       46.6883886891  MEMB      92              0.0000000000
     12256        98  POPC      H18S           53.7054222622       48.3530234805       48.3518501624  MEMB      92              0.0000000000
     12257        98  POPC      H18T           53.0655318148       46.9566743800       47.4203865028  MEMB      92              0.0000000000
     12258        98  POPC      C33            53.3897075011       45.2161634669       33.8780315722  MEMB      92              0.0000000000
     12259        98  POPC      H3X            52.4865598152       44.5645161966       33.9087762385  MEMB      92              0.0000000000
     12260        98  POPC      H3Y            53.0248641059       46.2665927816       33.9284481603  MEMB      92              0.0000000000
     12261        98  POPC      C34            54.2404621305       44.9138660213       35.1162689280  MEMB      92              0.0000000000
     12262        98  POPC      H4X            53.6349960212       45.1179574230       36.0285158224  MEMB      92              0.0000000000
     12263        98  POPC      H4Y            55.1103112327       45.6055455067       35.1436132890  MEMB      92              0.0000000000
     12264        98  POPC      C35            54.7518015876       43.4705219237       35.1780555475  MEMB      92              0.0000000000
     12265        98  POPC      H5X            55.3766055231       43.2403176320       34.2874599314  MEMB      92              0.0000000000
     12266        98  POPC      H5Y            53.9006263568       42.7633690928       35.1734269053  MEMB      92              0.0000000000
     12267        98  POPC      C36            55.6038725218       43.2299519942       36.4185253265  MEMB      92              0.0000000000
     12268        98  POPC      H6X            55.0883552246       43.6251275551       37.3212972439  MEMB      92              0.0000000000
     12269        98  POPC      H6Y            56.5368756496       43.8103130969       36.2945643355  MEMB      92              0.0000000000
     12270        98  POPC      C37            55.9359678358       41.7511405129       36.6155876744  MEMB      92              0.0000000000
     12271        98  POPC      H7X            56.1086015111       41.2778322203       35.6215077339  MEMB      92              0.0000000000
     12272        98  POPC      H7Y            55.0450507623       41.2656451249       37.0695068445  MEMB      92              0.0000000000
     12273        98  POPC      C38            57.1761960109       41.5005423597       37.4858263811  MEMB      92              0.0000000000
     12274        98  POPC      H8X            58.0836374408       41.7000586032       36.8703485974  MEMB      92              0.0000000000
     12275        98  POPC      H8Y            57.1884304268       40.4256808282       37.7690738355  MEMB      92              0.0000000000
     12276        98  POPC      C39            57.2583033128       42.3493133888       38.7636173614  MEMB      92              0.0000000000
     12277        98  POPC      H9X            57.3163293368       43.4265288082       38.4892980827  MEMB      92              0.0000000000
     12278        98  POPC      H9Y            58.2016142719       42.0950473678       39.2982834615  MEMB      92              0.0000000000
     12279        98  POPC      C310           56.0763432005       42.1400809721       39.7201830229  MEMB      92              0.0000000000
     12280        98  POPC      H10X           56.0733296982       41.0816566493       40.0612497593  MEMB      92              0.0000000000
     12281        98  POPC      H10Y           55.1185813043       42.3251245113       39.1852034736  MEMB      92              0.0000000000
     12282        98  POPC      C311           56.1463514505       43.0914011805       40.9205413712  MEMB      92              0.0000000000
     12283        98  POPC      H11X           56.1773759637       44.1373076462       40.5367441688  MEMB      92              0.0000000000
     12284        98  POPC      H11Y           57.0931470546       42.9120838738       41.4773250759  MEMB      92              0.0000000000
     12285        98  POPC      C312           54.9590082576       42.9608528721       41.8864183843  MEMB      92              0.0000000000
     12286        98  POPC      H12X           54.0101857048       43.1686177252       41.3451849091  MEMB      92              0.0000000000
     12287        98  POPC      H12Y           55.0781395852       43.7417004953       42.6704460217  MEMB      92              0.0000000000
     12288        98  POPC      C313           54.8815107005       41.5826916773       42.5594748176  MEMB      92              0.0000000000
     12289        98  POPC      H13X           55.8800463953       41.3512057447       42.9960870164  MEMB      92              0.0000000000
     12290        98  POPC      H13Y           54.6636960293       40.8049529362       41.7938079091  MEMB      92              0.0000000000
     12291        98  POPC      C314           53.8327281368       41.4832445626       43.6810319297  MEMB      92              0.0000000000
     12292        98  POPC      H14X           53.9409839907       40.4811766681       44.1528675235  MEMB      92              0.0000000000
     12293        98  POPC      H14Y           52.8072644706       41.5501030942       43.2538763361  MEMB      92              0.0000000000
     12294        98  POPC      C315           53.9972122802       42.5396489206       44.7813684298  MEMB      92              0.0000000000
     12295        98  POPC      H15X           53.6156975696       43.5184699170       44.4133741992  MEMB      92              0.0000000000
     12296        98  POPC      H15Y           55.0846187405       42.6723189439       44.9794751711  MEMB      92              0.0000000000
     12297        98  POPC      C316           53.2938375940       42.1691384347       46.0893024094  MEMB      92              0.0000000000
     12298        98  POPC      H16X           53.6995832567       41.2165367838       46.4928360304  MEMB      92              0.0000000000
     12299        98  POPC      H16Y           52.2022555840       42.0436157811       45.9222563353  MEMB      92              0.0000000000
     12300        98  POPC      H16Z           53.4477191112       42.9653751432       46.8495830435  MEMB      92              0.0000000000
     12301        99  POPC      N              20.3645327666       10.2273797371       27.7143712843  MEMB      93              0.0000000000
     12302        99  POPC      C12            20.7841526137       11.5343111584       27.0517438690  MEMB      93              0.0000000000
     12303        99  POPC      H12A           21.7511972705       11.8562476047       27.4428606582  MEMB      93              0.0000000000
     12304        99  POPC      H12B           20.0713362812       12.3135652813       27.3155340935  MEMB      93              0.0000000000
     12305        99  POPC      C13            19.1250894713        9.6933475907       27.0602026782  MEMB      93              0.0000000000
     12306        99  POPC      H13A           18.8044639499        8.7420413172       27.4638723930  MEMB      93              0.0000000000
     12307        99  POPC      H13B           18.3001177482       10.3928359996       27.1260380516  MEMB      93              0.0000000000
     12308        99  POPC      H13C           19.3129700037        9.5353084715       25.9941071673  MEMB      93              0.0000000000
     12309        99  POPC      C14            21.4660890634        9.2378273743       27.5347997330  MEMB      93              0.0000000000
     12310        99  POPC      H14A           21.6594425839        9.1230877148       26.4682172893  MEMB      93              0.0000000000
     12311        99  POPC      H14B           22.3836092586        9.6246599362       27.9583801399  MEMB      93              0.0000000000
     12312        99  POPC      H14C           21.2252188084        8.2783578522       27.9654679956  MEMB      93              0.0000000000
     12313        99  POPC      C15            20.1089769836       10.4740365772       29.1683819887  MEMB      93              0.0000000000
     12314        99  POPC      H15A           19.6793030067        9.5989633869       29.6442978216  MEMB      93              0.0000000000
     12315        99  POPC      H15B           19.4101783762       11.3028841319       29.2642229678  MEMB      93              0.0000000000
     12316        99  POPC      H15C           21.0088580429       10.7508063724       29.7042955171  MEMB      93              0.0000000000
     12317        99  POPC      C11            20.9412632470       11.5091436400       25.5168797478  MEMB      93              0.0000000000
     12318        99  POPC      H11A           20.9884920661       12.5760105539       25.1804608298  MEMB      93              0.0000000000
     12319        99  POPC      H11B           20.0306890459       11.1096267828       25.0273307230  MEMB      93              0.0000000000
     12320        99  POPC      P              23.4052721716       11.5195974043       24.7577708984  MEMB      93              0.0000000000
     12321        99  POPC      O13            23.0849476294       12.4362421219       23.6337274254  MEMB      93              0.0000000000
     12322        99  POPC      O14            24.5114117970       10.5645965909       24.6061758767  MEMB      93              0.0000000000
     12323        99  POPC      O12            22.0772142854       10.7231242583       25.1158652202  MEMB      93              0.0000000000
     12324        99  POPC      O11            23.6041796124       12.3684656169       26.0756252288  MEMB      93              0.0000000000
     12325        99  POPC      C1             24.9241909084       12.7561880124       26.4558989577  MEMB      93              0.0000000000
     12326        99  POPC      HA             25.2549624961       13.6123976935       25.8361296966  MEMB      93              0.0000000000
     12327        99  POPC      HB             25.6653999276       11.9350454761       26.2841253439  MEMB      93              0.0000000000
     12328        99  POPC      C2             25.0449291121       13.1495526317       27.9632725766  MEMB      93              0.0000000000
     12329        99  POPC      HS             26.1348917673       13.2291452225       28.1902443016  MEMB      93              0.0000000000
     12330        99  POPC      O21            24.4122901416       12.1641165779       28.8121970875  MEMB      93              0.0000000000
     12331        99  POPC      C21            25.0820819854       11.0107599126       28.8765748883  MEMB      93              0.0000000000
     12332        99  POPC      O22            26.1748216721       10.7863810518       28.3875132415  MEMB      93              0.0000000000
     12333        99  POPC      C22            24.3003964138       10.0269567051       29.7470477512  MEMB      93              0.0000000000
     12334        99  POPC      H2R            24.2585557449        9.0570919778       29.2101619596  MEMB      93              0.0000000000
     12335        99  POPC      H2S            23.2726419999       10.4132381056       29.8945402982  MEMB      93              0.0000000000
     12336        99  POPC      C3             24.4573184844       14.6005656310       28.2569707615  MEMB      93              0.0000000000
     12337        99  POPC      HX             24.7960567088       15.1761593677       27.3743247035  MEMB      93              0.0000000000
     12338        99  POPC      HY             25.0006577755       14.9676613070       29.1586311809  MEMB      93              0.0000000000
     12339        99  POPC      O31            23.0305267525       14.8229994562       28.4486231622  MEMB      93              0.0000000000
     12340        99  POPC      C31            22.7335706233       16.1662617324       28.4944196666  MEMB      93              0.0000000000
     12341        99  POPC      O32            23.4724479660       17.0376895244       28.0886621128  MEMB      93              0.0000000000
     12342        99  POPC      C32            21.4192325689       16.3764114168       29.1910625252  MEMB      93              0.0000000000
     12343        99  POPC      H2X            20.6825454084       15.6835439054       28.7516321981  MEMB      93              0.0000000000
     12344        99  POPC      H2Y            21.1064229060       17.4263904220       28.9894019174  MEMB      93              0.0000000000
     12345        99  POPC      C23            24.9885847504        9.8412594392       31.1142592068  MEMB      93              0.0000000000
     12346        99  POPC      H3R            25.2347794602       10.8322696816       31.5628729697  MEMB      93              0.0000000000
     12347        99  POPC      H3S            25.9553486646        9.3189063235       30.9261185286  MEMB      93              0.0000000000
     12348        99  POPC      C24            24.1610511952        9.0317278538       32.1300224761  MEMB      93              0.0000000000
     12349        99  POPC      H4R            24.8672773245        8.4153778491       32.7316865348  MEMB      93              0.0000000000
     12350        99  POPC      H4S            23.4718485590        8.3261496816       31.6211776163  MEMB      93              0.0000000000
     12351        99  POPC      C25            23.4247260197        9.9034270382       33.1524573416  MEMB      93              0.0000000000
     12352        99  POPC      H5R            22.5837547736       10.4449927547       32.6728975626  MEMB      93              0.0000000000
     12353        99  POPC      H5S            24.1530723908       10.6645556798       33.5206952631  MEMB      93              0.0000000000
     12354        99  POPC      C26            22.9367196783        9.1212265049       34.3841731952  MEMB      93              0.0000000000
     12355        99  POPC      H6R            23.7140198414        8.3824074223       34.6823220454  MEMB      93              0.0000000000
     12356        99  POPC      H6S            22.0132232000        8.5572020442       34.1356182945  MEMB      93              0.0000000000
     12357        99  POPC      C27            22.6953851166       10.0668574262       35.5692700833  MEMB      93              0.0000000000
     12358        99  POPC      H7R            21.9978832294       10.8576309533       35.2204024797  MEMB      93              0.0000000000
     12359        99  POPC      H7S            23.6563787884       10.5630880066       35.8357896605  MEMB      93              0.0000000000
     12360        99  POPC      C28            22.0833083683        9.4202739369       36.8258636152  MEMB      93              0.0000000000
     12361        99  POPC      H8R            21.0834788133        9.0191788930       36.5538013177  MEMB      93              0.0000000000
     12362        99  POPC      H8S            21.9052477080       10.2335050772       37.5675535934  MEMB      93              0.0000000000
     12363        99  POPC      C29            22.9162888199        8.3301320906       37.4458807937  MEMB      93              0.0000000000
     12364        99  POPC      H91            22.6284853815        7.3061831188       37.1607535923  MEMB      93              0.0000000000
     12365        99  POPC      C210           23.9581722885        8.4962507068       38.2790858623  MEMB      93              0.0000000000
     12366        99  POPC      H101           24.4522961287        7.5972821989       38.6765108271  MEMB      93              0.0000000000
     12367        99  POPC      C211           24.5293200263        9.8027087979       38.7756154083  MEMB      93              0.0000000000
     12368        99  POPC      H11R           24.3671900636       10.6193873120       38.0356843712  MEMB      93              0.0000000000
     12369        99  POPC      H11S           25.6318002976        9.6963368912       38.8871235867  MEMB      93              0.0000000000
     12370        99  POPC      C212           23.9554474074       10.2775709481       40.1286411977  MEMB      93              0.0000000000
     12371        99  POPC      H12R           22.8855372810       10.5475983190       39.9890999312  MEMB      93              0.0000000000
     12372        99  POPC      H12S           24.4883791495       11.2073568413       40.4199500082  MEMB      93              0.0000000000
     12373        99  POPC      C213           24.0630857696        9.2226269005       41.2442578902  MEMB      93              0.0000000000
     12374        99  POPC      H13R           24.9082483176        8.5419710559       41.0267562133  MEMB      93              0.0000000000
     12375        99  POPC      H13S           23.1526707167        8.5973441470       41.1667124063  MEMB      93              0.0000000000
     12376        99  POPC      C214           24.1988963680        9.7442022932       42.6942829768  MEMB      93              0.0000000000
     12377        99  POPC      H14R           24.2323603100        8.8583835134       43.3688301772  MEMB      93              0.0000000000
     12378        99  POPC      H14S           23.2878597308       10.3079859931       42.9652474941  MEMB      93              0.0000000000
     12379        99  POPC      C215           25.4554255593       10.5840954745       42.9782289684  MEMB      93              0.0000000000
     12380        99  POPC      H15R           25.8089581023       11.0498258300       42.0322799374  MEMB      93              0.0000000000
     12381        99  POPC      H15S           26.2613592436        9.9034485661       43.3361622942  MEMB      93              0.0000000000
     12382        99  POPC      C216           25.3223520856       11.7104481190       44.0118731439  MEMB      93              0.0000000000
     12383        99  POPC      H16R           24.9621328235       11.3124348541       44.9840487849  MEMB      93              0.0000000000
     12384        99  POPC      H16S           24.5990158401       12.4708324100       43.6553174250  MEMB      93              0.0000000000
     12385        99  POPC      C217           26.6853046927       12.3911127322       44.1828511968  MEMB      93              0.0000000000
     12386        99  POPC      H17R           27.1108671343       12.5431461286       43.1635650497  MEMB      93              0.0000000000
     12387        99  POPC      H17S           27.3507493444       11.6814936706       44.7171330792  MEMB      93              0.0000000000
     12388        99  POPC      C218           26.6767079724       13.7376618560       44.9014220615  MEMB      93              0.0000000000
     12389        99  POPC      H18R           25.8254673584       14.3641430768       44.5596394209  MEMB      93              0.0000000000
     12390        99  POPC      H18S           27.6162208728       14.2892085419       44.6823300954  MEMB      93              0.0000000000
     12391        99  POPC      H18T           26.6127387865       13.6087413733       46.0000886725  MEMB      93              0.0000000000
     12392        99  POPC      C33            21.5630912395       16.1549939309       30.7101674941  MEMB      93              0.0000000000
     12393        99  POPC      H3X            20.7229651031       16.7126362142       31.1805308307  MEMB      93              0.0000000000
     12394        99  POPC      H3Y            22.4836470244       16.6240240142       31.1132548623  MEMB      93              0.0000000000
     12395        99  POPC      C34            21.4666791388       14.6766240117       31.1269143860  MEMB      93              0.0000000000
     12396        99  POPC      H4X            21.0386393426       14.0702186026       30.2969034078  MEMB      93              0.0000000000
     12397        99  POPC      H4Y            20.7405463562       14.5983680185       31.9654881036  MEMB      93              0.0000000000
     12398        99  POPC      C35            22.8005123751       14.0601712707       31.5763660217  MEMB      93              0.0000000000
     12399        99  POPC      H5X            23.5960066460       14.8366839105       31.6114647314  MEMB      93              0.0000000000
     12400        99  POPC      H5Y            23.1106435533       13.3039487575       30.8189018141  MEMB      93              0.0000000000
     12401        99  POPC      C36            22.7227127340       13.3929420418       32.9559709020  MEMB      93              0.0000000000
     12402        99  POPC      H6X            23.6837494960       12.8706924538       33.1591121528  MEMB      93              0.0000000000
     12403        99  POPC      H6Y            21.9160014877       12.6260892583       32.9478338130  MEMB      93              0.0000000000
     12404        99  POPC      C37            22.4552298103       14.3753736525       34.1070254830  MEMB      93              0.0000000000
     12405        99  POPC      H7X            21.5263044974       14.9557318285       33.9108956781  MEMB      93              0.0000000000
     12406        99  POPC      H7Y            23.2941579576       15.1008785654       34.1755178178  MEMB      93              0.0000000000
     12407        99  POPC      C38            22.3000114206       13.6490998497       35.4468226414  MEMB      93              0.0000000000
     12408        99  POPC      H8X            23.2522007336       13.1329525342       35.7026006874  MEMB      93              0.0000000000
     12409        99  POPC      H8Y            21.5081303537       12.8750223812       35.3385892749  MEMB      93              0.0000000000
     12410        99  POPC      C39            21.8895107515       14.5745532288       36.5931874383  MEMB      93              0.0000000000
     12411        99  POPC      H9X            20.8847158344       14.9924883639       36.3669770110  MEMB      93              0.0000000000
     12412        99  POPC      H9Y            22.5920475191       15.4303571316       36.6720741737  MEMB      93              0.0000000000
     12413        99  POPC      C310           21.8236854997       13.8311750763       37.9301383723  MEMB      93              0.0000000000
     12414        99  POPC      H10X           22.8273172062       13.4274500352       38.1893752668  MEMB      93              0.0000000000
     12415        99  POPC      H10Y           21.1337502159       12.9633925137       37.8151735748  MEMB      93              0.0000000000
     12416        99  POPC      C311           21.3062942726       14.7250214593       39.0625409377  MEMB      93              0.0000000000
     12417        99  POPC      H11X           20.3795288808       15.2297315013       38.7019815944  MEMB      93              0.0000000000
     12418        99  POPC      H11Y           22.0529557947       15.5126158251       39.3019539390  MEMB      93              0.0000000000
     12419        99  POPC      C312           20.9590374976       13.9298179348       40.3225667015  MEMB      93              0.0000000000
     12420        99  POPC      H12X           20.4489389972       12.9884592743       40.0162216638  MEMB      93              0.0000000000
     12421        99  POPC      H12Y           20.2511114115       14.5205437377       40.9446820345  MEMB      93              0.0000000000
     12422        99  POPC      C313           22.1689142796       13.5880152493       41.1893827459  MEMB      93              0.0000000000
     12423        99  POPC      H13X           22.4758082071       14.4899985436       41.7621509246  MEMB      93              0.0000000000
     12424        99  POPC      H13Y           23.0250780634       13.3013984922       40.5356991211  MEMB      93              0.0000000000
     12425        99  POPC      C314           21.8941925120       12.4181583970       42.1409569591  MEMB      93              0.0000000000
     12426        99  POPC      H14X           22.7911456396       12.2861132591       42.7761600834  MEMB      93              0.0000000000
     12427        99  POPC      H14Y           21.7575195922       11.4930564971       41.5376704438  MEMB      93              0.0000000000
     12428        99  POPC      C315           20.6801158665       12.5442103052       43.0657321067  MEMB      93              0.0000000000
     12429        99  POPC      H15X           19.7537899569       12.6483201534       42.4586705978  MEMB      93              0.0000000000
     12430        99  POPC      H15Y           20.7805830506       13.4618187618       43.6849748730  MEMB      93              0.0000000000
     12431        99  POPC      C316           20.5449339224       11.3202850187       43.9783017356  MEMB      93              0.0000000000
     12432        99  POPC      H16X           21.4558584503       11.2072928483       44.6061216101  MEMB      93              0.0000000000
     12433        99  POPC      H16Y           20.4242290372       10.3985229952       43.3682007845  MEMB      93              0.0000000000
     12434        99  POPC      H16Z           19.6632836356       11.4214686847       44.6455668474  MEMB      93              0.0000000000
     12435       100  POPC      N              50.0853710278       16.4054630222       26.0273084297  MEMB      94              0.0000000000
     12436       100  POPC      C12            49.7692856882       17.7590852886       26.6676502400  MEMB      94              0.0000000000
     12437       100  POPC      H12A           48.8269862369       17.6848343559       27.1955269980  MEMB      94              0.0000000000
     12438       100  POPC      H12B           49.6563708660       18.5062847846       25.8788085862  MEMB      94              0.0000000000
     12439       100  POPC      C13            50.3200053620       15.3677090903       27.0845320635  MEMB      94              0.0000000000
     12440       100  POPC      H13A           49.4097317992       15.1917633608       27.6494861244  MEMB      94              0.0000000000
     12441       100  POPC      H13B           50.6092531355       14.4238671510       26.6375431034  MEMB      94              0.0000000000
     12442       100  POPC      H13C           51.1032346312       15.7074336124       27.7560389269  MEMB      94              0.0000000000
     12443       100  POPC      C14            48.9403758151       15.9886095482       25.1737584560  MEMB      94              0.0000000000
     12444       100  POPC      H14A           49.1793792538       15.1034411087       24.5969826392  MEMB      94              0.0000000000
     12445       100  POPC      H14B           48.0334628469       15.7993492691       25.7426923431  MEMB      94              0.0000000000
     12446       100  POPC      H14C           48.6910781594       16.7570383553       24.4409558579  MEMB      94              0.0000000000
     12447       100  POPC      C15            51.2855754930       16.5449531148       25.1369207668  MEMB      94              0.0000000000
     12448       100  POPC      H15A           51.0371437724       17.1545130743       24.2678882792  MEMB      94              0.0000000000
     12449       100  POPC      H15B           51.6659339450       15.5925895039       24.7916836004  MEMB      94              0.0000000000
     12450       100  POPC      H15C           52.0526957960       17.1089244365       25.6702273086  MEMB      94              0.0000000000
     12451       100  POPC      C11            50.7980051125       18.3547275967       27.6600094574  MEMB      94              0.0000000000
     12452       100  POPC      H11A           51.0164554087       17.6252326826       28.4681669263  MEMB      94              0.0000000000
     12453       100  POPC      H11B           50.3541675369       19.2378563860       28.1817527666  MEMB      94              0.0000000000
     12454       100  POPC      P              52.1600297021       20.1148950890       26.3021007077  MEMB      94              0.0000000000
     12455       100  POPC      O13            50.9595834170       20.3998843211       25.4724844744  MEMB      94              0.0000000000
     12456       100  POPC      O14            53.4466682979       20.1296348337       25.5766858642  MEMB      94              0.0000000000
     12457       100  POPC      O12            52.0038994217       18.6890593161       26.9798931601  MEMB      94              0.0000000000
     12458       100  POPC      O11            52.1818233143       21.1332210274       27.4965978141  MEMB      94              0.0000000000
     12459       100  POPC      C1             53.4429546446       21.6275832900       27.9689710352  MEMB      94              0.0000000000
     12460       100  POPC      HA             53.3381209701       22.7222614833       28.1351303078  MEMB      94              0.0000000000
     12461       100  POPC      HB             54.2889522484       21.5222592842       27.2535087063  MEMB      94              0.0000000000
     12462       100  POPC      C2             53.8096846458       21.0165061015       29.3384126586  MEMB      94              0.0000000000
     12463       100  POPC      HS             54.7445101205       21.5050188830       29.7010280225  MEMB      94              0.0000000000
     12464       100  POPC      O21            53.9714337947       19.5806932281       29.3043102625  MEMB      94              0.0000000000
     12465       100  POPC      C21            54.9791330026       19.1537290956       28.5622361727  MEMB      94              0.0000000000
     12466       100  POPC      O22            55.8571257965       19.8666082772       28.0894929377  MEMB      94              0.0000000000
     12467       100  POPC      C22            54.9529371765       17.6202874578       28.4327731344  MEMB      94              0.0000000000
     12468       100  POPC      H2R            55.9652196982       17.2466111232       28.6774689220  MEMB      94              0.0000000000
     12469       100  POPC      H2S            54.7523515220       17.3785436267       27.3695053860  MEMB      94              0.0000000000
     12470       100  POPC      C3             52.6728898094       21.3983986736       30.3081322276  MEMB      94              0.0000000000
     12471       100  POPC      HX             51.7602722184       20.8045848432       30.0641652482  MEMB      94              0.0000000000
     12472       100  POPC      HY             52.4074386102       22.4607610211       30.1132883065  MEMB      94              0.0000000000
     12473       100  POPC      O31            53.1123123486       21.2908351903       31.6684612290  MEMB      94              0.0000000000
     12474       100  POPC      C31            52.7762980241       20.1585159608       32.2694643015  MEMB      94              0.0000000000
     12475       100  POPC      O32            52.1007266980       19.2643707717       31.7976768804  MEMB      94              0.0000000000
     12476       100  POPC      C32            53.2924574797       20.2395087097       33.7212470564  MEMB      94              0.0000000000
     12477       100  POPC      H2X            52.5212572754       20.7621127834       34.3149357001  MEMB      94              0.0000000000
     12478       100  POPC      H2Y            54.2062567025       20.8615924377       33.7321462017  MEMB      94              0.0000000000
     12479       100  POPC      C23            53.9520906986       16.8685983549       29.3455201270  MEMB      94              0.0000000000
     12480       100  POPC      H3R            52.9638829270       16.8520406826       28.8442698335  MEMB      94              0.0000000000
     12481       100  POPC      H3S            53.8290805432       17.3916918290       30.3228784215  MEMB      94              0.0000000000
     12482       100  POPC      C24            54.4171487200       15.4344817116       29.6459439915  MEMB      94              0.0000000000
     12483       100  POPC      H4R            55.2259520240       15.4709856044       30.4110031628  MEMB      94              0.0000000000
     12484       100  POPC      H4S            54.8801813936       14.9984216434       28.7324345812  MEMB      94              0.0000000000
     12485       100  POPC      C25            53.3044159786       14.4827851393       30.1251093477  MEMB      94              0.0000000000
     12486       100  POPC      H5R            53.7863809132       13.5232929244       30.4261833820  MEMB      94              0.0000000000
     12487       100  POPC      H5S            52.6246299137       14.2797890904       29.2723424008  MEMB      94              0.0000000000
     12488       100  POPC      C26            52.4552965102       15.0071792053       31.2959345132  MEMB      94              0.0000000000
     12489       100  POPC      H6R            51.6330551180       14.2840224801       31.4865802606  MEMB      94              0.0000000000
     12490       100  POPC      H6S            51.9888802731       15.9790128400       31.0210172904  MEMB      94              0.0000000000
     12491       100  POPC      C27            53.2627311542       15.1847560537       32.5878381911  MEMB      94              0.0000000000
     12492       100  POPC      H7R            54.0801723746       15.9186332534       32.4039113728  MEMB      94              0.0000000000
     12493       100  POPC      H7S            53.7506550602       14.2175256103       32.8429268581  MEMB      94              0.0000000000
     12494       100  POPC      C28            52.4018363878       15.6800459710       33.7625854822  MEMB      94              0.0000000000
     12495       100  POPC      H8R            51.9297821082       16.6415102537       33.4567731470  MEMB      94              0.0000000000
     12496       100  POPC      H8S            53.0819499429       15.9139728321       34.6079024481  MEMB      94              0.0000000000
     12497       100  POPC      C29            51.3388602486       14.6991381777       34.1927003836  MEMB      94              0.0000000000
     12498       100  POPC      H91            50.3378543169       14.8886544566       33.7754341268  MEMB      94              0.0000000000
     12499       100  POPC      C210           51.5087502787       13.6230485370       34.9824850167  MEMB      94              0.0000000000
     12500       100  POPC      H101           50.6304326870       13.0030542885       35.2185572621  MEMB      94              0.0000000000
     12501       100  POPC      C211           52.7942813966       13.1505059370       35.6155692003  MEMB      94              0.0000000000
     12502       100  POPC      H11R           53.5887829032       13.0559065463       34.8407029089  MEMB      94              0.0000000000
     12503       100  POPC      H11S           52.6361640860       12.1287819815       36.0277029363  MEMB      94              0.0000000000
     12504       100  POPC      C212           53.3457575848       14.0312508149       36.7553201506  MEMB      94              0.0000000000
     12505       100  POPC      H12R           53.8080789228       14.9454625824       36.3242731155  MEMB      94              0.0000000000
     12506       100  POPC      H12S           54.1588312997       13.4711051564       37.2710554089  MEMB      94              0.0000000000
     12507       100  POPC      C213           52.2909379576       14.4487824881       37.7901391072  MEMB      94              0.0000000000
     12508       100  POPC      H13R           51.7954836100       13.5351300497       38.1906368796  MEMB      94              0.0000000000
     12509       100  POPC      H13S           51.5132761956       15.0768803617       37.2980748393  MEMB      94              0.0000000000
     12510       100  POPC      C214           52.8939648523       15.2498696591       38.9501311969  MEMB      94              0.0000000000
     12511       100  POPC      H14R           53.4155063382       16.1489139517       38.5511963016  MEMB      94              0.0000000000
     12512       100  POPC      H14S           53.6502257211       14.6158848922       39.4657046167  MEMB      94              0.0000000000
     12513       100  POPC      C215           51.8271689150       15.6925314968       39.9589881823  MEMB      94              0.0000000000
     12514       100  POPC      H15R           51.2199610213       14.8009874008       40.2384547370  MEMB      94              0.0000000000
     12515       100  POPC      H15S           51.1421965801       16.4296089150       39.4829165575  MEMB      94              0.0000000000
     12516       100  POPC      C216           52.4229196054       16.2914694238       41.2379242167  MEMB      94              0.0000000000
     12517       100  POPC      H16R           52.9464386779       17.2445252195       40.9981601245  MEMB      94              0.0000000000
     12518       100  POPC      H16S           53.1764549157       15.5802880691       41.6478862261  MEMB      94              0.0000000000
     12519       100  POPC      C217           51.3488507842       16.5398975131       42.3041301994  MEMB      94              0.0000000000
     12520       100  POPC      H17R           50.7498067071       15.6075820161       42.4286512599  MEMB      94              0.0000000000
     12521       100  POPC      H17S           50.6564925658       17.3342584254       41.9448501289  MEMB      94              0.0000000000
     12522       100  POPC      C218           51.9245386465       16.9357342101       43.6627963083  MEMB      94              0.0000000000
     12523       100  POPC      H18R           52.5168581859       17.8726456449       43.5856929489  MEMB      94              0.0000000000
     12524       100  POPC      H18S           52.5878538666       16.1361447392       44.0449550200  MEMB      94              0.0000000000
     12525       100  POPC      H18T           51.1105838829       17.0903416272       44.4040318167  MEMB      94              0.0000000000
     12526       100  POPC      C33            53.5677904986       18.8706708645       34.3887818889  MEMB      94              0.0000000000
     12527       100  POPC      H3X            54.0574185270       18.1923514388       33.6500872234  MEMB      94              0.0000000000
     12528       100  POPC      H3Y            52.5940640768       18.4084870194       34.6669957118  MEMB      94              0.0000000000
     12529       100  POPC      C34            54.4809515939       18.9234258232       35.6324878376  MEMB      94              0.0000000000
     12530       100  POPC      H4X            55.5116412135       19.1857038156       35.3091483349  MEMB      94              0.0000000000
     12531       100  POPC      H4Y            54.5253247187       17.8972682587       36.0670477736  MEMB      94              0.0000000000
     12532       100  POPC      C35            54.0649458649       19.9066712379       36.7411821240  MEMB      94              0.0000000000
     12533       100  POPC      H5X            54.1268741039       20.9533773747       36.3686998062  MEMB      94              0.0000000000
     12534       100  POPC      H5Y            54.7924357170       19.8121009323       37.5812398775  MEMB      94              0.0000000000
     12535       100  POPC      C36            52.6570355414       19.6534603916       37.2979800376  MEMB      94              0.0000000000
     12536       100  POPC      H6X            52.4889248230       18.5557418239       37.3938814988  MEMB      94              0.0000000000
     12537       100  POPC      H6Y            51.9050976820       20.0439279546       36.5769882481  MEMB      94              0.0000000000
     12538       100  POPC      C37            52.4313920881       20.2905474361       38.6789952145  MEMB      94              0.0000000000
     12539       100  POPC      H7X            52.8021697518       21.3390022659       38.6770479289  MEMB      94              0.0000000000
     12540       100  POPC      H7Y            53.0235190078       19.7216817290       39.4309567267  MEMB      94              0.0000000000
     12541       100  POPC      C38            50.9507200839       20.2782763593       39.0837828833  MEMB      94              0.0000000000
     12542       100  POPC      H8X            50.5110433812       19.2992373685       38.7846075928  MEMB      94              0.0000000000
     12543       100  POPC      H8Y            50.4166935870       21.0697465520       38.5137444716  MEMB      94              0.0000000000
     12544       100  POPC      C39            50.6928411381       20.4605595772       40.5874855445  MEMB      94              0.0000000000
     12545       100  POPC      H9X            51.0136353947       19.5399134461       41.1238237941  MEMB      94              0.0000000000
     12546       100  POPC      H9Y            49.5912660010       20.5512017044       40.7315110793  MEMB      94              0.0000000000
     12547       100  POPC      C310           51.3662948297       21.6815915663       41.2402359024  MEMB      94              0.0000000000
     12548       100  POPC      H10X           50.6078263165       22.1490234064       41.9102447457  MEMB      94              0.0000000000
     12549       100  POPC      H10Y           51.6476339040       22.4407536984       40.4820796726  MEMB      94              0.0000000000
     12550       100  POPC      C311           52.5810735509       21.3156823453       42.1094916483  MEMB      94              0.0000000000
     12551       100  POPC      H11X           53.4408263146       21.0285600122       41.4667767569  MEMB      94              0.0000000000
     12552       100  POPC      H11Y           52.3095532849       20.4194055758       42.7076746175  MEMB      94              0.0000000000
     12553       100  POPC      C312           52.9967318617       22.4404685594       43.0729049295  MEMB      94              0.0000000000
     12554       100  POPC      H12X           52.2614633135       23.2741453605       42.9952543448  MEMB      94              0.0000000000
     12555       100  POPC      H12Y           53.9834186095       22.8496415099       42.7611676351  MEMB      94              0.0000000000
     12556       100  POPC      C313           53.0613828708       22.0127515928       44.5515024027  MEMB      94              0.0000000000
     12557       100  POPC      H13X           52.0436341229       21.7116940846       44.8805726490  MEMB      94              0.0000000000
     12558       100  POPC      H13Y           53.3557282046       22.9029623171       45.1514103200  MEMB      94              0.0000000000
     12559       100  POPC      C314           54.0309226010       20.8558648289       44.8402800319  MEMB      94              0.0000000000
     12560       100  POPC      H14X           55.0314658027       21.1108797203       44.4338510071  MEMB      94              0.0000000000
     12561       100  POPC      H14Y           53.6875552653       19.9436351972       44.3044362531  MEMB      94              0.0000000000
     12562       100  POPC      C315           54.1582333372       20.5130817167       46.3357092339  MEMB      94              0.0000000000
     12563       100  POPC      H15X           54.7592547564       19.5791627462       46.4293701381  MEMB      94              0.0000000000
     12564       100  POPC      H15Y           53.1459265093       20.2874217566       46.7400472693  MEMB      94              0.0000000000
     12565       100  POPC      C316           54.8142000085       21.6029616444       47.1916150683  MEMB      94              0.0000000000
     12566       100  POPC      H16X           54.9876764738       21.2320975706       48.2239993521  MEMB      94              0.0000000000
     12567       100  POPC      H16Y           54.1675709524       22.5040977058       47.2490276432  MEMB      94              0.0000000000
     12568       100  POPC      H16Z           55.7954631164       21.9003050502       46.7641779083  MEMB      94              0.0000000000
     12569       101  POPC      N              12.9416405639       14.9512289990       26.6033021176  MEMB      95              0.0000000000
     12570       101  POPC      C12            14.3038984344       14.4767904151       27.0947879148  MEMB      95              0.0000000000
     12571       101  POPC      H12A           14.2142824545       13.4890273536       27.5116278895  MEMB      95              0.0000000000
     12572       101  POPC      H12B           14.6346792791       15.1471690494       27.8843388293  MEMB      95              0.0000000000
     12573       101  POPC      C13            12.9362089123       16.4530514754       26.5437079631  MEMB      95              0.0000000000
     12574       101  POPC      H13A           13.8090081107       16.8121807894       25.9864308007  MEMB      95              0.0000000000
     12575       101  POPC      H13B           12.0886934937       16.8831035884       26.0288513118  MEMB      95              0.0000000000
     12576       101  POPC      H13C           13.0433549768       16.9632238427       27.4957249466  MEMB      95              0.0000000000
     12577       101  POPC      C14            12.7342025646       14.4415935528       25.2138130889  MEMB      95              0.0000000000
     12578       101  POPC      H14A           11.7830633494       14.7723785430       24.8272158659  MEMB      95              0.0000000000
     12579       101  POPC      H14B           13.5051509753       14.8665602424       24.5710294258  MEMB      95              0.0000000000
     12580       101  POPC      H14C           12.7683273670       13.3648543190       25.1593336235  MEMB      95              0.0000000000
     12581       101  POPC      C15            11.7938004613       14.4679647816       27.4324223995  MEMB      95              0.0000000000
     12582       101  POPC      H15A           11.7960713463       13.3941832198       27.5470504501  MEMB      95              0.0000000000
     12583       101  POPC      H15B           10.8605027442       14.7051003529       26.9268602469  MEMB      95              0.0000000000
     12584       101  POPC      H15C           11.7712861286       14.9242188821       28.4121139461  MEMB      95              0.0000000000
     12585       101  POPC      C11            15.4760815167       14.4488397863       26.0738177690  MEMB      95              0.0000000000
     12586       101  POPC      H11A           15.2413950206       13.8058113395       25.1994923520  MEMB      95              0.0000000000
     12587       101  POPC      H11B           16.3859488434       13.9947055825       26.5288609659  MEMB      95              0.0000000000
     12588       101  POPC      P              16.5210177530       16.8226269145       26.5162535486  MEMB      95              0.0000000000
     12589       101  POPC      O13            15.5937872078       17.8938263227       26.9067028703  MEMB      95              0.0000000000
     12590       101  POPC      O14            17.8338085490       17.1582128583       25.9174735517  MEMB      95              0.0000000000
     12591       101  POPC      O12            15.7616409573       15.7549482624       25.6088192861  MEMB      95              0.0000000000
     12592       101  POPC      O11            16.8116533718       15.9405477310       27.8014820735  MEMB      95              0.0000000000
     12593       101  POPC      C1             18.0981836883       16.0453491410       28.4115747429  MEMB      95              0.0000000000
     12594       101  POPC      HA             18.5062576390       17.0895469444       28.3954507265  MEMB      95              0.0000000000
     12595       101  POPC      HB             18.8174910840       15.4024021183       27.8554887612  MEMB      95              0.0000000000
     12596       101  POPC      C2             18.0182214153       15.6118902730       29.8972396933  MEMB      95              0.0000000000
     12597       101  POPC      HS             19.0465291624       15.4736878322       30.2836635410  MEMB      95              0.0000000000
     12598       101  POPC      O21            17.2734457212       14.4031802523       30.0854502376  MEMB      95              0.0000000000
     12599       101  POPC      C21            17.4991357660       13.3792661524       29.3114631782  MEMB      95              0.0000000000
     12600       101  POPC      O22            18.5285269867       13.1137559847       28.7163089393  MEMB      95              0.0000000000
     12601       101  POPC      C22            16.2579292099       12.4771768094       29.2861490352  MEMB      95              0.0000000000
     12602       101  POPC      H2R            16.5490897134       11.4805038972       29.6733539061  MEMB      95              0.0000000000
     12603       101  POPC      H2S            15.9685347119       12.3652211571       28.2233694821  MEMB      95              0.0000000000
     12604       101  POPC      C3             17.3254674515       16.7033084938       30.7640963880  MEMB      95              0.0000000000
     12605       101  POPC      HX             16.4231801186       17.0238783142       30.1945537086  MEMB      95              0.0000000000
     12606       101  POPC      HY             17.9806459296       17.5957595731       30.8751853394  MEMB      95              0.0000000000
     12607       101  POPC      O31            16.8933817880       16.1768680833       32.0404452716  MEMB      95              0.0000000000
     12608       101  POPC      C31            17.9001248679       15.8657456250       32.8558586139  MEMB      95              0.0000000000
     12609       101  POPC      O32            19.0485968267       16.2445067084       32.7224156251  MEMB      95              0.0000000000
     12610       101  POPC      C32            17.4007717437       14.9732577254       33.9984863152  MEMB      95              0.0000000000
     12611       101  POPC      H2X            16.5150525639       14.4062953770       33.6436198911  MEMB      95              0.0000000000
     12612       101  POPC      H2Y            17.0951682785       15.6372019092       34.8325958778  MEMB      95              0.0000000000
     12613       101  POPC      C23            15.0876709207       13.0560867474       30.1199590193  MEMB      95              0.0000000000
     12614       101  POPC      H3R            14.8688613759       14.1023180462       29.8075640120  MEMB      95              0.0000000000
     12615       101  POPC      H3S            15.4219115752       13.1133108859       31.1814181165  MEMB      95              0.0000000000
     12616       101  POPC      C24            13.7910465513       12.2399106541       30.0452188988  MEMB      95              0.0000000000
     12617       101  POPC      H4R            13.9366998988       11.3827855407       29.3520351985  MEMB      95              0.0000000000
     12618       101  POPC      H4S            12.9716503677       12.8714269896       29.6390031611  MEMB      95              0.0000000000
     12619       101  POPC      C25            13.3603106004       11.6942214990       31.4132355216  MEMB      95              0.0000000000
     12620       101  POPC      H5R            14.2298447834       11.1618722456       31.8549094717  MEMB      95              0.0000000000
     12621       101  POPC      H5S            12.5208120095       10.9715494683       31.2912212354  MEMB      95              0.0000000000
     12622       101  POPC      C26            12.9749530725       12.7505193045       32.4522323165  MEMB      95              0.0000000000
     12623       101  POPC      H6R            12.1978493675       13.4351446427       32.0516795315  MEMB      95              0.0000000000
     12624       101  POPC      H6S            13.8744959570       13.3588751139       32.6961973110  MEMB      95              0.0000000000
     12625       101  POPC      C27            12.4728527699       12.0901266013       33.7484276226  MEMB      95              0.0000000000
     12626       101  POPC      H7R            13.0100355431       11.1245135665       33.8891230996  MEMB      95              0.0000000000
     12627       101  POPC      H7S            11.3979326932       11.8374955975       33.6266602537  MEMB      95              0.0000000000
     12628       101  POPC      C28            12.7080473132       12.9431335176       35.0070873799  MEMB      95              0.0000000000
     12629       101  POPC      H8R            13.8027026667       12.9509301103       35.2074506398  MEMB      95              0.0000000000
     12630       101  POPC      H8S            12.2225515361       12.4423904975       35.8721968410  MEMB      95              0.0000000000
     12631       101  POPC      C29            12.1607477518       14.3306861611       34.8119784824  MEMB      95              0.0000000000
     12632       101  POPC      H91            11.1069689120       14.3614777639       34.5025824013  MEMB      95              0.0000000000
     12633       101  POPC      C210           12.7982211802       15.4994634154       35.0058766055  MEMB      95              0.0000000000
     12634       101  POPC      H101           12.2491690915       16.4249695771       34.7733902928  MEMB      95              0.0000000000
     12635       101  POPC      C211           14.2117725687       15.7376230868       35.4727556356  MEMB      95              0.0000000000
     12636       101  POPC      H11R           14.7720326774       16.2805294312       34.6777249358  MEMB      95              0.0000000000
     12637       101  POPC      H11S           14.7648412149       14.7951747861       35.6825513683  MEMB      95              0.0000000000
     12638       101  POPC      C212           14.2110298421       16.6097149921       36.7481285609  MEMB      95              0.0000000000
     12639       101  POPC      H12R           13.6293533367       17.5418958449       36.5653701990  MEMB      95              0.0000000000
     12640       101  POPC      H12S           15.2598724457       16.9104218449       36.9717010916  MEMB      95              0.0000000000
     12641       101  POPC      C213           13.6338792365       15.8973809396       37.9857198286  MEMB      95              0.0000000000
     12642       101  POPC      H13R           14.2836642725       15.0302580629       38.2293819237  MEMB      95              0.0000000000
     12643       101  POPC      H13S           12.6232910613       15.4935828008       37.7573821585  MEMB      95              0.0000000000
     12644       101  POPC      C214           13.5205247040       16.8116618698       39.2159711085  MEMB      95              0.0000000000
     12645       101  POPC      H14R           12.7686855962       17.6071695564       39.0109873378  MEMB      95              0.0000000000
     12646       101  POPC      H14S           14.5011134674       17.3056550348       39.3965602074  MEMB      95              0.0000000000
     12647       101  POPC      C215           13.1124532690       16.0455045030       40.4841302290  MEMB      95              0.0000000000
     12648       101  POPC      H15R           13.8756758556       15.2611268343       40.6843057956  MEMB      95              0.0000000000
     12649       101  POPC      H15S           12.1432925527       15.5317201423       40.2975768147  MEMB      95              0.0000000000
     12650       101  POPC      C216           12.9687373251       16.9541401092       41.7159319283  MEMB      95              0.0000000000
     12651       101  POPC      H16R           12.2493725619       17.7680163198       41.4707613658  MEMB      95              0.0000000000
     12652       101  POPC      H16S           13.9511347018       17.4287678172       41.9373330473  MEMB      95              0.0000000000
     12653       101  POPC      C217           12.4643032171       16.2206028907       42.9708129047  MEMB      95              0.0000000000
     12654       101  POPC      H17R           11.4634317352       15.7906185046       42.7499449412  MEMB      95              0.0000000000
     12655       101  POPC      H17S           12.3158369796       16.9666720204       43.7836628364  MEMB      95              0.0000000000
     12656       101  POPC      C218           13.3921923277       15.1130722002       43.4775047169  MEMB      95              0.0000000000
     12657       101  POPC      H18R           14.3734959239       15.5416972616       43.7683710507  MEMB      95              0.0000000000
     12658       101  POPC      H18S           13.5654730334       14.3445671851       42.6953610080  MEMB      95              0.0000000000
     12659       101  POPC      H18T           12.9628114507       14.6040264821       44.3637569209  MEMB      95              0.0000000000
     12660       101  POPC      C33            18.4996021798       13.9917485576       34.4762333151  MEMB      95              0.0000000000
     12661       101  POPC      H3X            19.3479354232       14.5735929368       34.8984563801  MEMB      95              0.0000000000
     12662       101  POPC      H3Y            18.8937178704       13.4307329280       33.5966683856  MEMB      95              0.0000000000
     12663       101  POPC      C34            18.0225979571       12.9628518485       35.5186573413  MEMB      95              0.0000000000
     12664       101  POPC      H4X            18.8300110762       12.2062279602       35.6575646237  MEMB      95              0.0000000000
     12665       101  POPC      H4Y            17.1268503811       12.4309570671       35.1239770067  MEMB      95              0.0000000000
     12666       101  POPC      C35            17.6889188864       13.5629271213       36.8956498211  MEMB      95              0.0000000000
     12667       101  POPC      H5X            16.8405604776       14.2742205618       36.7817429290  MEMB      95              0.0000000000
     12668       101  POPC      H5Y            18.5637862226       14.1372316881       37.2720676639  MEMB      95              0.0000000000
     12669       101  POPC      C36            17.2931450622       12.4872208405       37.9249263123  MEMB      95              0.0000000000
     12670       101  POPC      H6X            18.1790801222       11.8683732613       38.1891431441  MEMB      95              0.0000000000
     12671       101  POPC      H6Y            16.5533237993       11.8155713734       37.4371713117  MEMB      95              0.0000000000
     12672       101  POPC      C37            16.6382346895       13.0478431287       39.2000218939  MEMB      95              0.0000000000
     12673       101  POPC      H7X            16.1859950650       12.2094669255       39.7769790319  MEMB      95              0.0000000000
     12674       101  POPC      H7Y            15.8146381109       13.7318572748       38.9056710584  MEMB      95              0.0000000000
     12675       101  POPC      C38            17.6133107591       13.7959448035       40.1191974529  MEMB      95              0.0000000000
     12676       101  POPC      H8X            18.1990992870       14.5276217237       39.5190301645  MEMB      95              0.0000000000
     12677       101  POPC      H8Y            18.3230486047       13.0569872917       40.5529395916  MEMB      95              0.0000000000
     12678       101  POPC      C39            16.9192642438       14.5575940130       41.2596046397  MEMB      95              0.0000000000
     12679       101  POPC      H9X            16.3201522071       13.8444681299       41.8685507804  MEMB      95              0.0000000000
     12680       101  POPC      H9Y            16.2201844601       15.3022217863       40.8168323394  MEMB      95              0.0000000000
     12681       101  POPC      C310           17.9066285589       15.2897349195       42.1823292884  MEMB      95              0.0000000000
     12682       101  POPC      H10X           18.5690318343       15.9419661619       41.5705644164  MEMB      95              0.0000000000
     12683       101  POPC      H10Y           18.5468933596       14.5388535479       42.6945464574  MEMB      95              0.0000000000
     12684       101  POPC      C311           17.1993635834       16.1587872070       43.2315840764  MEMB      95              0.0000000000
     12685       101  POPC      H11X           16.5080026389       15.5225066253       43.8226605531  MEMB      95              0.0000000000
     12686       101  POPC      H11Y           16.5837337769       16.9174199932       42.6960040268  MEMB      95              0.0000000000
     12687       101  POPC      C312           18.1647633108       16.8909710048       44.1793928523  MEMB      95              0.0000000000
     12688       101  POPC      H12X           17.6026927059       17.6818157454       44.7254213446  MEMB      95              0.0000000000
     12689       101  POPC      H12Y           18.9451498894       17.3951058973       43.5683391087  MEMB      95              0.0000000000
     12690       101  POPC      C313           18.8511313588       15.9844310961       45.2148739494  MEMB      95              0.0000000000
     12691       101  POPC      H13X           19.6444183897       16.5742552320       45.7254905295  MEMB      95              0.0000000000
     12692       101  POPC      H13Y           19.3429375445       15.1347529713       44.6949900066  MEMB      95              0.0000000000
     12693       101  POPC      C314           17.8865221749       15.4454951471       46.2786015075  MEMB      95              0.0000000000
     12694       101  POPC      H14X           17.1138688247       14.8144652340       45.7865249320  MEMB      95              0.0000000000
     12695       101  POPC      H14Y           17.3682138361       16.3106045220       46.7503621040  MEMB      95              0.0000000000
     12696       101  POPC      C315           18.5576710913       14.6100744666       47.3814455816  MEMB      95              0.0000000000
     12697       101  POPC      H15X           17.7977932866       14.3471005299       48.1462428314  MEMB      95              0.0000000000
     12698       101  POPC      H15Y           19.3050484540       15.2397369098       47.9052453276  MEMB      95              0.0000000000
     12699       101  POPC      C316           19.2006143613       13.3088590642       46.8918547644  MEMB      95              0.0000000000
     12700       101  POPC      H16X           18.4428070470       12.6753644850       46.3827528148  MEMB      95              0.0000000000
     12701       101  POPC      H16Y           19.6218615515       12.7356850673       47.7456559741  MEMB      95              0.0000000000
     12702       101  POPC      H16Z           20.0177375579       13.5184000822       46.1708521732  MEMB      95              0.0000000000
     12703       102  POPC      N              35.7746960234       57.6648277966       27.4873018853  MEMB      96              0.0000000000
     12704       102  POPC      C12            34.6946171473       56.6059019039       27.3169232638  MEMB      96              0.0000000000
     12705       102  POPC      H12A           33.7726786358       57.0157118696       27.7370312439  MEMB      96              0.0000000000
     12706       102  POPC      H12B           34.9410398555       55.7498450060       27.9212764979  MEMB      96              0.0000000000
     12707       102  POPC      C13            35.2182576690       58.9320718875       26.9226769928  MEMB      96              0.0000000000
     12708       102  POPC      H13A           34.3113537038       59.2157690432       27.4485509444  MEMB      96              0.0000000000
     12709       102  POPC      H13B           35.9183033505       59.7432574102       26.9331866002  MEMB      96              0.0000000000
     12710       102  POPC      H13C           34.8853491326       58.7603892338       25.8939715341  MEMB      96              0.0000000000
     12711       102  POPC      C14            36.0748084169       57.8554636952       28.9412992508  MEMB      96              0.0000000000
     12712       102  POPC      H14A           36.6248002725       57.0081020772       29.3230119776  MEMB      96              0.0000000000
     12713       102  POPC      H14B           36.7169736532       58.7199974790       29.1020134570  MEMB      96              0.0000000000
     12714       102  POPC      H14C           35.1748765826       57.9988437340       29.5277797146  MEMB      96              0.0000000000
     12715       102  POPC      C15            37.0411120138       57.2983979058       26.7552731674  MEMB      96              0.0000000000
     12716       102  POPC      H15A           37.4745436615       56.3669906013       27.0928815912  MEMB      96              0.0000000000
     12717       102  POPC      H15B           37.8066334792       58.0681208821       26.8191837385  MEMB      96              0.0000000000
     12718       102  POPC      H15C           36.8096983670       57.1733587698       25.6990448996  MEMB      96              0.0000000000
     12719       102  POPC      C11            34.3271276103       56.0849481401       25.8961891142  MEMB      96              0.0000000000
     12720       102  POPC      H11A           33.4984460302       55.3388398568       25.9963797985  MEMB      96              0.0000000000
     12721       102  POPC      H11B           35.1995141917       55.5256563320       25.4973490035  MEMB      96              0.0000000000
     12722       102  POPC      P              32.5793106122       57.8092672431       24.9447003470  MEMB      96              0.0000000000
     12723       102  POPC      O13            31.5168610864       56.8456435227       24.5533937554  MEMB      96              0.0000000000
     12724       102  POPC      O14            32.7044466996       59.0435815035       24.1213698699  MEMB      96              0.0000000000
     12725       102  POPC      O12            33.9954381993       57.1146163628       24.9654973230  MEMB      96              0.0000000000
     12726       102  POPC      O11            32.3989698123       58.1528900061       26.4963121622  MEMB      96              0.0000000000
     12727       102  POPC      C1             31.0811433417       58.1811237598       27.0474389042  MEMB      96              0.0000000000
     12728       102  POPC      HA             30.3957953956       57.4464237759       26.5752213517  MEMB      96              0.0000000000
     12729       102  POPC      HB             30.6517278825       59.1935414917       26.8585377807  MEMB      96              0.0000000000
     12730       102  POPC      C2             31.0168524842       57.9249328306       28.5895388083  MEMB      96              0.0000000000
     12731       102  POPC      HS             29.9939511581       58.2257729144       28.9144134242  MEMB      96              0.0000000000
     12732       102  POPC      O21            32.0264487975       58.6944464365       29.2737480339  MEMB      96              0.0000000000
     12733       102  POPC      C21            31.7231757114       60.0017274703       29.3291521180  MEMB      96              0.0000000000
     12734       102  POPC      O22            30.6844773645       60.4922330394       28.9356888369  MEMB      96              0.0000000000
     12735       102  POPC      C22            32.8204604571       60.7172634816       30.1144476294  MEMB      96              0.0000000000
     12736       102  POPC      H2R            33.7982977916       60.4572473865       29.6610163509  MEMB      96              0.0000000000
     12737       102  POPC      H2S            32.7935218842       60.3194430267       31.1499202328  MEMB      96              0.0000000000
     12738       102  POPC      C3             31.1433474534       56.4110403230       29.0437691566  MEMB      96              0.0000000000
     12739       102  POPC      HX             30.3294422787       55.8583206030       28.5157779706  MEMB      96              0.0000000000
     12740       102  POPC      HY             30.8929516512       56.4227457233       30.1304399933  MEMB      96              0.0000000000
     12741       102  POPC      O31            32.4198406196       55.7323705249       28.8626606383  MEMB      96              0.0000000000
     12742       102  POPC      C31            32.3429373101       54.4441224757       29.3169448671  MEMB      96              0.0000000000
     12743       102  POPC      O32            31.3319503150       53.9407739080       29.7645801596  MEMB      96              0.0000000000
     12744       102  POPC      C32            33.6747587191       53.7149985497       29.2149685963  MEMB      96              0.0000000000
     12745       102  POPC      H2X            34.0247920747       53.7576327124       28.1645560313  MEMB      96              0.0000000000
     12746       102  POPC      H2Y            33.4760496492       52.6453150788       29.4485508336  MEMB      96              0.0000000000
     12747       102  POPC      C23            32.6427384715       62.2526052888       30.1467623618  MEMB      96              0.0000000000
     12748       102  POPC      H3R            31.7001356467       62.5528063632       30.6573651938  MEMB      96              0.0000000000
     12749       102  POPC      H3S            32.5525551365       62.6099524539       29.0918312513  MEMB      96              0.0000000000
     12750       102  POPC      C24            33.8371720674       62.9999298846       30.7710935438  MEMB      96              0.0000000000
     12751       102  POPC      H4R            34.0317099547       63.9006832364       30.1372220459  MEMB      96              0.0000000000
     12752       102  POPC      H4S            34.7540118562       62.3737642958       30.7269294218  MEMB      96              0.0000000000
     12753       102  POPC      C25            33.6141125442       63.5192960952       32.2054020041  MEMB      96              0.0000000000
     12754       102  POPC      H5R            32.6620613764       64.0922061397       32.2461923473  MEMB      96              0.0000000000
     12755       102  POPC      H5S            34.4467820370       64.2284107569       32.4321067528  MEMB      96              0.0000000000
     12756       102  POPC      C26            33.6118900121       62.4521027999       33.3097420508  MEMB      96              0.0000000000
     12757       102  POPC      H6R            34.5394403468       61.8424282466       33.2191849429  MEMB      96              0.0000000000
     12758       102  POPC      H6S            32.7410977656       61.7727715943       33.1826207076  MEMB      96              0.0000000000
     12759       102  POPC      C27            33.5808010634       63.0960915263       34.7076619332  MEMB      96              0.0000000000
     12760       102  POPC      H7R            32.5842787200       63.5523446754       34.8964556654  MEMB      96              0.0000000000
     12761       102  POPC      H7S            34.3289331287       63.9229470257       34.7107678386  MEMB      96              0.0000000000
     12762       102  POPC      C28            33.9755344834       62.1413791671       35.8502923405  MEMB      96              0.0000000000
     12763       102  POPC      H8R            34.1785152779       62.7653883607       36.7504748144  MEMB      96              0.0000000000
     12764       102  POPC      H8S            34.9330701978       61.6559025023       35.5694490107  MEMB      96              0.0000000000
     12765       102  POPC      C29            32.9383560254       61.0932786381       36.1501629975  MEMB      96              0.0000000000
     12766       102  POPC      H91            32.4024326584       60.6935110300       35.2754407180  MEMB      96              0.0000000000
     12767       102  POPC      C210           32.6438805271       60.6170711864       37.3723283016  MEMB      96              0.0000000000
     12768       102  POPC      H101           31.8597637847       59.8487579634       37.4632106300  MEMB      96              0.0000000000
     12769       102  POPC      C211           33.2867508515       61.0258430521       38.6762071166  MEMB      96              0.0000000000
     12770       102  POPC      H11R           34.3444316053       61.3432125592       38.5391836382  MEMB      96              0.0000000000
     12771       102  POPC      H11S           33.3151787299       60.1354172644       39.3432939434  MEMB      96              0.0000000000
     12772       102  POPC      C212           32.5295112370       62.1536614451       39.4063975079  MEMB      96              0.0000000000
     12773       102  POPC      H12R           31.4352491162       61.9833284794       39.3006572280  MEMB      96              0.0000000000
     12774       102  POPC      H12S           32.7422080179       63.1400858624       38.9401446906  MEMB      96              0.0000000000
     12775       102  POPC      C213           32.8419486140       62.2034226553       40.9129577927  MEMB      96              0.0000000000
     12776       102  POPC      H13R           33.8424640575       62.6507828612       41.0919292593  MEMB      96              0.0000000000
     12777       102  POPC      H13S           32.8833806889       61.1589130342       41.2921335587  MEMB      96              0.0000000000
     12778       102  POPC      C214           31.7624563313       62.9587315133       41.7057764707  MEMB      96              0.0000000000
     12779       102  POPC      H14R           30.7878793646       62.8228543115       41.1846421127  MEMB      96              0.0000000000
     12780       102  POPC      H14S           31.9852885008       64.0452195207       41.6977067239  MEMB      96              0.0000000000
     12781       102  POPC      C215           31.5686766639       62.4948939596       43.1600839605  MEMB      96              0.0000000000
     12782       102  POPC      H15R           31.0794218285       61.5013276026       43.1741498164  MEMB      96              0.0000000000
     12783       102  POPC      H15S           30.8644367458       63.2074228355       43.6491150723  MEMB      96              0.0000000000
     12784       102  POPC      C216           32.8592456002       62.4375942982       43.9812029130  MEMB      96              0.0000000000
     12785       102  POPC      H16R           32.6826296798       62.9338622110       44.9602586788  MEMB      96              0.0000000000
     12786       102  POPC      H16S           33.6491535126       63.0080837722       43.4539650258  MEMB      96              0.0000000000
     12787       102  POPC      C217           33.3918935767       61.0272138894       44.2465528447  MEMB      96              0.0000000000
     12788       102  POPC      H17R           33.6790541941       60.5579650451       43.2793445164  MEMB      96              0.0000000000
     12789       102  POPC      H17S           32.5901327804       60.4013262503       44.6964118940  MEMB      96              0.0000000000
     12790       102  POPC      C218           34.6053115475       61.0487854171       45.1749664501  MEMB      96              0.0000000000
     12791       102  POPC      H18R           34.3137162163       61.3650060953       46.1964334799  MEMB      96              0.0000000000
     12792       102  POPC      H18S           35.3577442383       61.7694922954       44.7939792507  MEMB      96              0.0000000000
     12793       102  POPC      H18T           35.0743892171       60.0442553860       45.2435939798  MEMB      96              0.0000000000
     12794       102  POPC      C33            34.7616521117       54.2473216482       30.1811220164  MEMB      96              0.0000000000
     12795       102  POPC      H3X            35.0684033879       55.2739833324       29.8940351653  MEMB      96              0.0000000000
     12796       102  POPC      H3Y            35.6502631856       53.5811281147       30.0651488890  MEMB      96              0.0000000000
     12797       102  POPC      C34            34.3448529284       54.2310809505       31.6644155358  MEMB      96              0.0000000000
     12798       102  POPC      H4X            35.1735200394       53.7850617769       32.2621859792  MEMB      96              0.0000000000
     12799       102  POPC      H4Y            33.4588727209       53.5728128672       31.8056733177  MEMB      96              0.0000000000
     12800       102  POPC      C35            34.0609459783       55.6300597078       32.2398814660  MEMB      96              0.0000000000
     12801       102  POPC      H5X            33.2096820225       56.0988564567       31.6964728117  MEMB      96              0.0000000000
     12802       102  POPC      H5Y            34.9613327559       56.2668758467       32.0813588440  MEMB      96              0.0000000000
     12803       102  POPC      C36            33.7512649651       55.5906883091       33.7484330074  MEMB      96              0.0000000000
     12804       102  POPC      H6X            34.5616684701       55.0271205665       34.2641865909  MEMB      96              0.0000000000
     12805       102  POPC      H6Y            32.7982516584       55.0359208270       33.9061994557  MEMB      96              0.0000000000
     12806       102  POPC      C37            33.6294502440       56.9890387821       34.3747686017  MEMB      96              0.0000000000
     12807       102  POPC      H7X            32.8158798111       57.5470878745       33.8575688184  MEMB      96              0.0000000000
     12808       102  POPC      H7Y            34.5773523355       57.5483498806       34.2059284811  MEMB      96              0.0000000000
     12809       102  POPC      C38            33.3277154843       56.9843150286       35.8847841909  MEMB      96              0.0000000000
     12810       102  POPC      H8X            32.3348992885       56.5162215765       36.0632047966  MEMB      96              0.0000000000
     12811       102  POPC      H8Y            33.2706175716       58.0410897562       36.2302462240  MEMB      96              0.0000000000
     12812       102  POPC      C39            34.3874611106       56.2594651061       36.7279683648  MEMB      96              0.0000000000
     12813       102  POPC      H9X            35.3955080170       56.5621351763       36.3661415532  MEMB      96              0.0000000000
     12814       102  POPC      H9Y            34.2935372088       55.1615439011       36.5734844647  MEMB      96              0.0000000000
     12815       102  POPC      C310           34.3009642481       56.5668084074       38.2332014745  MEMB      96              0.0000000000
     12816       102  POPC      H10X           34.5996260853       57.6253642133       38.4069575490  MEMB      96              0.0000000000
     12817       102  POPC      H10Y           35.0352156862       55.9180094754       38.7636365552  MEMB      96              0.0000000000
     12818       102  POPC      C311           32.9093418553       56.3365466907       38.8434391252  MEMB      96              0.0000000000
     12819       102  POPC      H11X           32.4882522416       55.3943241288       38.4244529050  MEMB      96              0.0000000000
     12820       102  POPC      H11Y           32.2368985905       57.1736420066       38.5495407815  MEMB      96              0.0000000000
     12821       102  POPC      C312           32.9318880705       56.2092694373       40.3770182245  MEMB      96              0.0000000000
     12822       102  POPC      H12X           33.4959961451       55.2879959390       40.6386809070  MEMB      96              0.0000000000
     12823       102  POPC      H12Y           31.8919280156       56.0755647357       40.7499317492  MEMB      96              0.0000000000
     12824       102  POPC      C313           33.5704693033       57.4046397435       41.1005061053  MEMB      96              0.0000000000
     12825       102  POPC      H13X           32.9789916434       58.3168000894       40.8549920036  MEMB      96              0.0000000000
     12826       102  POPC      H13Y           34.6079462255       57.5697033841       40.7368887356  MEMB      96              0.0000000000
     12827       102  POPC      C314           33.6067740491       57.2371718253       42.6280737178  MEMB      96              0.0000000000
     12828       102  POPC      H14X           32.5959607692       56.9409871417       42.9852362787  MEMB      96              0.0000000000
     12829       102  POPC      H14Y           33.8553024010       58.2206788583       43.0889348133  MEMB      96              0.0000000000
     12830       102  POPC      C315           34.6287201926       56.2092590048       43.1269475782  MEMB      96              0.0000000000
     12831       102  POPC      H15X           35.6430732446       56.5141058689       42.7835826692  MEMB      96              0.0000000000
     12832       102  POPC      H15Y           34.4076895310       55.2152980063       42.6774747434  MEMB      96              0.0000000000
     12833       102  POPC      C316           34.6271023126       56.0784450354       44.6511761856  MEMB      96              0.0000000000
     12834       102  POPC      H16X           35.3933749526       55.3465891450       44.9868132580  MEMB      96              0.0000000000
     12835       102  POPC      H16Y           33.6344288216       55.7293563701       45.0086712882  MEMB      96              0.0000000000
     12836       102  POPC      H16Z           34.8418190451       57.0608406466       45.1242912611  MEMB      96              0.0000000000
     12837       103  POPC      N              12.7053373345       44.5800724943       24.7990937185  MEMB      97              0.0000000000
     12838       103  POPC      C12            11.6032214940       44.4841549789       25.8430220117  MEMB      97              0.0000000000
     12839       103  POPC      H12A           11.5584133938       43.4811134021       26.2375932759  MEMB      97              0.0000000000
     12840       103  POPC      H12B           10.6599639960       44.6980657546       25.3494844002  MEMB      97              0.0000000000
     12841       103  POPC      C13            14.0369161567       44.6951273715       25.4751464019  MEMB      97              0.0000000000
     12842       103  POPC      H13A           14.2526517894       43.8707095269       26.1247557126  MEMB      97              0.0000000000
     12843       103  POPC      H13B           14.8388758572       44.8739427343       24.7680204525  MEMB      97              0.0000000000
     12844       103  POPC      H13C           14.0267700730       45.6044688148       26.0957642238  MEMB      97              0.0000000000
     12845       103  POPC      C14            12.7190557832       43.4457148100       23.8325223547  MEMB      97              0.0000000000
     12846       103  POPC      H14A           11.8419102894       43.4521974574       23.1960520045  MEMB      97              0.0000000000
     12847       103  POPC      H14B           13.5773027115       43.5637689609       23.1715396650  MEMB      97              0.0000000000
     12848       103  POPC      H14C           12.8117193226       42.4958964252       24.3372546862  MEMB      97              0.0000000000
     12849       103  POPC      C15            12.5012475416       45.8631902126       24.0350568508  MEMB      97              0.0000000000
     12850       103  POPC      H15A           12.5295045744       46.6854941865       24.7608712617  MEMB      97              0.0000000000
     12851       103  POPC      H15B           11.5417824127       45.9444555554       23.5598464394  MEMB      97              0.0000000000
     12852       103  POPC      H15C           13.3110182331       46.0975097836       23.3531220774  MEMB      97              0.0000000000
     12853       103  POPC      C11            11.6801157933       45.4909693693       27.0217499603  MEMB      97              0.0000000000
     12854       103  POPC      H11A           12.5650395199       45.2727683301       27.6662545418  MEMB      97              0.0000000000
     12855       103  POPC      H11B           10.7889843145       45.3474260006       27.6715399699  MEMB      97              0.0000000000
     12856       103  POPC      P              12.7116107596       47.9292285534       26.9686339449  MEMB      97              0.0000000000
     12857       103  POPC      O13            12.6361916523       49.0460306110       25.9961476696  MEMB      97              0.0000000000
     12858       103  POPC      O14            13.9974220390       47.2113384092       27.1080257360  MEMB      97              0.0000000000
     12859       103  POPC      O12            11.6716717055       46.8218292344       26.5124001589  MEMB      97              0.0000000000
     12860       103  POPC      O11            12.1095464696       48.3239497587       28.4178226556  MEMB      97              0.0000000000
     12861       103  POPC      C1             10.6732640540       48.5018738624       28.5070815683  MEMB      97              0.0000000000
     12862       103  POPC      HA             10.1027912015       47.8981008563       27.7631235611  MEMB      97              0.0000000000
     12863       103  POPC      HB             10.4417103907       49.5546475542       28.2239222217  MEMB      97              0.0000000000
     12864       103  POPC      C2              9.9138495203       48.2175888659       29.8869855019  MEMB      97              0.0000000000
     12865       103  POPC      HS              8.9849386911       48.8282877608       29.7665788624  MEMB      97              0.0000000000
     12866       103  POPC      O21            10.6245019887       48.5564708301       31.1240338392  MEMB      97              0.0000000000
     12867       103  POPC      C21             9.7604892221       48.9217075778       32.0973063513  MEMB      97              0.0000000000
     12868       103  POPC      O22             8.5545594937       48.9586410781       31.9815745244  MEMB      97              0.0000000000
     12869       103  POPC      C22            10.4306812050       49.3432571188       33.3940573887  MEMB      97              0.0000000000
     12870       103  POPC      H2R             9.6032707554       49.6670953799       34.0641672073  MEMB      97              0.0000000000
     12871       103  POPC      H2S            11.0447666597       50.2297522580       33.1955064501  MEMB      97              0.0000000000
     12872       103  POPC      C3              9.4711306816       46.7203422379       30.0053687237  MEMB      97              0.0000000000
     12873       103  POPC      HX              9.0230965195       46.4217186710       29.0347617159  MEMB      97              0.0000000000
     12874       103  POPC      HY              8.6512219344       46.6833583692       30.7644422650  MEMB      97              0.0000000000
     12875       103  POPC      O31            10.5665241711       45.8300879065       30.2927612960  MEMB      97              0.0000000000
     12876       103  POPC      C31            10.4251216537       45.0228613189       31.3351825102  MEMB      97              0.0000000000
     12877       103  POPC      O32             9.4115067835       44.8536590491       31.9894686621  MEMB      97              0.0000000000
     12878       103  POPC      C32            11.7677195348       44.3330000486       31.5662692629  MEMB      97              0.0000000000
     12879       103  POPC      H2X            12.5617296793       45.0346603309       31.2260763335  MEMB      97              0.0000000000
     12880       103  POPC      H2Y            11.8160415967       43.4283295262       30.9300755143  MEMB      97              0.0000000000
     12881       103  POPC      C23            11.2611098532       48.2632749303       34.1063948386  MEMB      97              0.0000000000
     12882       103  POPC      H3R            11.9375446580       48.7886939065       34.8247317182  MEMB      97              0.0000000000
     12883       103  POPC      H3S            11.9115234972       47.6999048596       33.4010784498  MEMB      97              0.0000000000
     12884       103  POPC      C24            10.3702773967       47.3247473260       34.9212188100  MEMB      97              0.0000000000
     12885       103  POPC      H4R             9.8768078664       46.5983891323       34.2373161759  MEMB      97              0.0000000000
     12886       103  POPC      H4S             9.5749816451       47.9226933451       35.4203962914  MEMB      97              0.0000000000
     12887       103  POPC      C25            11.1628510484       46.5889122265       36.0042229480  MEMB      97              0.0000000000
     12888       103  POPC      H5R            11.5143091128       47.3204165636       36.7655732877  MEMB      97              0.0000000000
     12889       103  POPC      H5S            12.0661771680       46.1614651925       35.5168262611  MEMB      97              0.0000000000
     12890       103  POPC      C26            10.3742355962       45.4599187262       36.6736945450  MEMB      97              0.0000000000
     12891       103  POPC      H6R            11.0642969717       44.8477985321       37.2971780325  MEMB      97              0.0000000000
     12892       103  POPC      H6S             9.9666107895       44.7924174916       35.8817417816  MEMB      97              0.0000000000
     12893       103  POPC      C27             9.2261447093       45.9488831691       37.5672024724  MEMB      97              0.0000000000
     12894       103  POPC      H7R             8.5955574150       46.6553744833       36.9833419000  MEMB      97              0.0000000000
     12895       103  POPC      H7S             9.6431618948       46.5054229781       38.4377572577  MEMB      97              0.0000000000
     12896       103  POPC      C28             8.3585119401       44.7755146276       38.0501874818  MEMB      97              0.0000000000
     12897       103  POPC      H8R             8.9905963402       44.0975675604       38.6643258368  MEMB      97              0.0000000000
     12898       103  POPC      H8S             8.0452216541       44.1875413817       37.1587256481  MEMB      97              0.0000000000
     12899       103  POPC      C29             7.1353657348       45.2630462823       38.7846244056  MEMB      97              0.0000000000
     12900       103  POPC      H91             6.3544526734       45.6835135729       38.1317490852  MEMB      97              0.0000000000
     12901       103  POPC      C210            6.9069162728       45.2073557298       40.1090095188  MEMB      97              0.0000000000
     12902       103  POPC      H101            5.9576588296       45.6110940687       40.4939190652  MEMB      97              0.0000000000
     12903       103  POPC      C211            7.8252835957       44.6434148806       41.1650292023  MEMB      97              0.0000000000
     12904       103  POPC      H11R            8.7135820171       44.1452380812       40.7165402759  MEMB      97              0.0000000000
     12905       103  POPC      H11S            7.2949909769       43.8640179070       41.7565510596  MEMB      97              0.0000000000
     12906       103  POPC      C212            8.3534500498       45.7267974195       42.1256481444  MEMB      97              0.0000000000
     12907       103  POPC      H12R            8.8750889123       46.5140585438       41.5389988024  MEMB      97              0.0000000000
     12908       103  POPC      H12S            9.1247647691       45.2511922154       42.7759043313  MEMB      97              0.0000000000
     12909       103  POPC      C213            7.2809784131       46.3366442345       43.0458579618  MEMB      97              0.0000000000
     12910       103  POPC      H13R            7.6164682896       46.2189730709       44.1007596392  MEMB      97              0.0000000000
     12911       103  POPC      H13S            6.3324433386       45.7652433852       42.9388084764  MEMB      97              0.0000000000
     12912       103  POPC      C214            7.0012565684       47.8321674832       42.8137030089  MEMB      97              0.0000000000
     12913       103  POPC      H14R            6.1999619466       48.1452353127       43.5212798192  MEMB      97              0.0000000000
     12914       103  POPC      H14S            6.6215979904       47.9909120774       41.7801075572  MEMB      97              0.0000000000
     12915       103  POPC      C215            8.2323915780       48.7227521664       43.0449949497  MEMB      97              0.0000000000
     12916       103  POPC      H15R            8.9387369351       48.5646092549       42.2001090799  MEMB      97              0.0000000000
     12917       103  POPC      H15S            8.7506621803       48.3949936767       43.9730905918  MEMB      97              0.0000000000
     12918       103  POPC      C216            7.9028232048       50.2235307857       43.1285937505  MEMB      97              0.0000000000
     12919       103  POPC      H16R            6.8549579902       50.3950122065       42.8018512502  MEMB      97              0.0000000000
     12920       103  POPC      H16S            8.5354260155       50.7712832004       42.3954779737  MEMB      97              0.0000000000
     12921       103  POPC      C217            8.1402130187       50.8481263774       44.5145815193  MEMB      97              0.0000000000
     12922       103  POPC      H17R            8.4848042772       50.0685708936       45.2307408141  MEMB      97              0.0000000000
     12923       103  POPC      H17S            7.1735892811       51.2435615307       44.9015267227  MEMB      97              0.0000000000
     12924       103  POPC      C218            9.1692953407       51.9805837258       44.4896128087  MEMB      97              0.0000000000
     12925       103  POPC      H18R            8.8443614920       52.7770180306       43.7861455955  MEMB      97              0.0000000000
     12926       103  POPC      H18S           10.1567412260       51.6040946952       44.1444975732  MEMB      97              0.0000000000
     12927       103  POPC      H18T            9.2958595464       52.4294448458       45.4972383451  MEMB      97              0.0000000000
     12928       103  POPC      C33            12.0235791400       43.9890167859       33.0476857091  MEMB      97              0.0000000000
     12929       103  POPC      H3X            11.8878016799       42.8963984766       33.2083595068  MEMB      97              0.0000000000
     12930       103  POPC      H3Y            11.3014393807       44.5152131749       33.7152067143  MEMB      97              0.0000000000
     12931       103  POPC      C34            13.4297352131       44.4196676004       33.4880592081  MEMB      97              0.0000000000
     12932       103  POPC      H4X            13.5105428121       45.5279855369       33.3890966288  MEMB      97              0.0000000000
     12933       103  POPC      H4Y            14.1926256692       43.9642581347       32.8205092042  MEMB      97              0.0000000000
     12934       103  POPC      C35            13.7212194515       44.0253705106       34.9391929431  MEMB      97              0.0000000000
     12935       103  POPC      H5X            14.0496814169       42.9642748608       34.9739988304  MEMB      97              0.0000000000
     12936       103  POPC      H5Y            12.7691366741       44.0832879787       35.5105820140  MEMB      97              0.0000000000
     12937       103  POPC      C36            14.7504055181       44.9366415388       35.6255652707  MEMB      97              0.0000000000
     12938       103  POPC      H6X            14.3169222538       45.9544179862       35.7591241468  MEMB      97              0.0000000000
     12939       103  POPC      H6Y            15.6404632718       45.0436573457       34.9656081711  MEMB      97              0.0000000000
     12940       103  POPC      C37            15.2090250651       44.3908967436       36.9834132883  MEMB      97              0.0000000000
     12941       103  POPC      H7X            15.9851337631       45.0603610649       37.4158225416  MEMB      97              0.0000000000
     12942       103  POPC      H7Y            15.6895318127       43.4001660231       36.8101096303  MEMB      97              0.0000000000
     12943       103  POPC      C38            14.0825557717       44.1906473086       38.0126097300  MEMB      97              0.0000000000
     12944       103  POPC      H8X            14.4863451774       43.5171892355       38.7931608810  MEMB      97              0.0000000000
     12945       103  POPC      H8Y            13.2126420747       43.6602290953       37.5739296941  MEMB      97              0.0000000000
     12946       103  POPC      C39            13.6265323340       45.4801006902       38.7086831145  MEMB      97              0.0000000000
     12947       103  POPC      H9X            12.9849124602       46.0685233815       38.0207144737  MEMB      97              0.0000000000
     12948       103  POPC      H9Y            14.5210963634       46.1037204825       38.9291391658  MEMB      97              0.0000000000
     12949       103  POPC      C310           12.8918033375       45.2166749767       40.0359305942  MEMB      97              0.0000000000
     12950       103  POPC      H10X           11.9665242896       44.6262530820       39.8562893978  MEMB      97              0.0000000000
     12951       103  POPC      H10Y           12.5779125129       46.1943871439       40.4554323587  MEMB      97              0.0000000000
     12952       103  POPC      C311           13.7812470935       44.4998725076       41.0659612413  MEMB      97              0.0000000000
     12953       103  POPC      H11X           14.8267074251       44.8602847018       40.9192170498  MEMB      97              0.0000000000
     12954       103  POPC      H11Y           13.7748735289       43.4051840934       40.8734525460  MEMB      97              0.0000000000
     12955       103  POPC      C312           13.4223427196       44.7677043216       42.5340434901  MEMB      97              0.0000000000
     12956       103  POPC      H12X           13.3733135675       45.8633082638       42.7057940551  MEMB      97              0.0000000000
     12957       103  POPC      H12Y           14.2616926608       44.3696830475       43.1495985028  MEMB      97              0.0000000000
     12958       103  POPC      C313           12.1142353995       44.1167877132       43.0046887983  MEMB      97              0.0000000000
     12959       103  POPC      H13X           12.2232207023       43.0110464088       42.9369596015  MEMB      97              0.0000000000
     12960       103  POPC      H13Y           11.2894584578       44.4172855482       42.3197814798  MEMB      97              0.0000000000
     12961       103  POPC      C314           11.7285811144       44.5002873200       44.4460547045  MEMB      97              0.0000000000
     12962       103  POPC      H14X           10.8205759437       43.9302034442       44.7425629516  MEMB      97              0.0000000000
     12963       103  POPC      H14Y           11.4525378623       45.5778340154       44.4640559855  MEMB      97              0.0000000000
     12964       103  POPC      C315           12.8370700261       44.2560742956       45.4847307495  MEMB      97              0.0000000000
     12965       103  POPC      H15X           13.7590283770       44.8013153139       45.1810976356  MEMB      97              0.0000000000
     12966       103  POPC      H15Y           13.0807266680       43.1701750669       45.5066878648  MEMB      97              0.0000000000
     12967       103  POPC      C316           12.4666689207       44.7259547944       46.8922493517  MEMB      97              0.0000000000
     12968       103  POPC      H16X           13.2942086542       44.5255309437       47.6062236053  MEMB      97              0.0000000000
     12969       103  POPC      H16Y           11.5548110421       44.2121012141       47.2603361760  MEMB      97              0.0000000000
     12970       103  POPC      H16Z           12.2697064153       45.8185497122       46.8799326540  MEMB      97              0.0000000000
     12971       104  POPC      N              29.5137577170        7.9764587346       25.4926284148  MEMB      98              0.0000000000
     12972       104  POPC      C12            29.7658225541        6.4740381438       25.3672191901  MEMB      98              0.0000000000
     12973       104  POPC      H12A           30.7676290170        6.2089878845       25.6825898025  MEMB      98              0.0000000000
     12974       104  POPC      H12B           29.6999279749        6.1844638668       24.3191646503  MEMB      98              0.0000000000
     12975       104  POPC      C13            30.2990509966        8.7909250587       24.5168143792  MEMB      98              0.0000000000
     12976       104  POPC      H13A           31.3607560627        8.7079907999       24.6719908709  MEMB      98              0.0000000000
     12977       104  POPC      H13B           30.1027731824        8.5104634667       23.4786315557  MEMB      98              0.0000000000
     12978       104  POPC      H13C           30.0232298392        9.8385242628       24.6107362280  MEMB      98              0.0000000000
     12979       104  POPC      C14            28.0575582342        8.2232617648       25.2275857502  MEMB      98              0.0000000000
     12980       104  POPC      H14A           27.8108277139        8.0848081684       24.1825597283  MEMB      98              0.0000000000
     12981       104  POPC      H14B           27.4938575502        7.4302182588       25.7202000968  MEMB      98              0.0000000000
     12982       104  POPC      H14C           27.6847562763        9.1850433569       25.5386950664  MEMB      98              0.0000000000
     12983       104  POPC      C15            29.7078117164        8.4079187953       26.9180998578  MEMB      98              0.0000000000
     12984       104  POPC      H15A           29.1324286948        7.7581057238       27.5768080712  MEMB      98              0.0000000000
     12985       104  POPC      H15B           29.3339286958        9.4173803044       27.0749918626  MEMB      98              0.0000000000
     12986       104  POPC      H15C           30.7380031171        8.3586222025       27.2122908787  MEMB      98              0.0000000000
     12987       104  POPC      C11            28.8022882901        5.5222870937       26.1360616051  MEMB      98              0.0000000000
     12988       104  POPC      H11A           28.7049337834        5.8361592297       27.1981980668  MEMB      98              0.0000000000
     12989       104  POPC      H11B           29.2678451260        4.5046080060       26.1132960373  MEMB      98              0.0000000000
     12990       104  POPC      P              26.5022493780        4.3313156778       25.7181685047  MEMB      98              0.0000000000
     12991       104  POPC      O13            27.2749628290        3.1006588030       25.5135861766  MEMB      98              0.0000000000
     12992       104  POPC      O14            25.3675826444        4.5388268484       24.7799380573  MEMB      98              0.0000000000
     12993       104  POPC      O12            27.5181472336        5.5117698436       25.5222129804  MEMB      98              0.0000000000
     12994       104  POPC      O11            26.0574013918        4.6230641607       27.1910518468  MEMB      98              0.0000000000
     12995       104  POPC      C1             25.6965925314        3.6214355950       28.1382189253  MEMB      98              0.0000000000
     12996       104  POPC      HA             25.4299034213        2.6507972178       27.6567495079  MEMB      98              0.0000000000
     12997       104  POPC      HB             24.7877175257        3.9685385295       28.6813127756  MEMB      98              0.0000000000
     12998       104  POPC      C2             26.8059090568        3.3880989521       29.2026148352  MEMB      98              0.0000000000
     12999       104  POPC      HS             26.3973951869        2.7358110508       29.9931203543  MEMB      98              0.0000000000
     13000       104  POPC      O21            27.1977967888        4.7003307129       29.7389401282  MEMB      98              0.0000000000
     13001       104  POPC      C21            26.4253600937        5.1433209901       30.7776441863  MEMB      98              0.0000000000
     13002       104  POPC      O22            25.5711355788        4.4537824774       31.2976022441  MEMB      98              0.0000000000
     13003       104  POPC      C22            26.6907589388        6.6247398259       31.2448845228  MEMB      98              0.0000000000
     13004       104  POPC      H2R            25.6681816356        6.9852560278       31.4776528985  MEMB      98              0.0000000000
     13005       104  POPC      H2S            27.0704310651        7.2069358590       30.3854236931  MEMB      98              0.0000000000
     13006       104  POPC      C3             28.0161063168        2.5641048842       28.5097353089  MEMB      98              0.0000000000
     13007       104  POPC      HX             28.2220789264        3.0878020802       27.5690431872  MEMB      98              0.0000000000
     13008       104  POPC      HY             27.6062034185        1.5711690975       28.2201444250  MEMB      98              0.0000000000
     13009       104  POPC      O31            29.3294744556        2.4335932232       29.1243955354  MEMB      98              0.0000000000
     13010       104  POPC      C31            29.7166708779        1.2889332328       29.7479091139  MEMB      98              0.0000000000
     13011       104  POPC      O32            28.9727204844        0.4149402850       30.1440128071  MEMB      98              0.0000000000
     13012       104  POPC      C32            31.2314923651        1.3264510921       30.0981502056  MEMB      98              0.0000000000
     13013       104  POPC      H2X            31.6427280636        2.2639048329       29.6948783163  MEMB      98              0.0000000000
     13014       104  POPC      H2Y            31.6560860706        0.4845541210       29.5091324697  MEMB      98              0.0000000000
     13015       104  POPC      C23            27.5780436040        6.8631722562       32.5380656052  MEMB      98              0.0000000000
     13016       104  POPC      H3R            28.6510259647        6.7847055972       32.2672290197  MEMB      98              0.0000000000
     13017       104  POPC      H3S            27.3867365276        6.0555616753       33.2705589498  MEMB      98              0.0000000000
     13018       104  POPC      C24            27.5426954147        8.2466655004       33.2595183786  MEMB      98              0.0000000000
     13019       104  POPC      H4R            26.9475165398        8.9933298819       32.7090736153  MEMB      98              0.0000000000
     13020       104  POPC      H4S            28.5857054746        8.6378942758       33.2403799058  MEMB      98              0.0000000000
     13021       104  POPC      C25            27.1154799741        8.2192792996       34.7459469791  MEMB      98              0.0000000000
     13022       104  POPC      H5R            27.4835540602        7.2916869687       35.2212858184  MEMB      98              0.0000000000
     13023       104  POPC      H5S            26.0059830764        8.1924429303       34.8053223604  MEMB      98              0.0000000000
     13024       104  POPC      C26            27.6538121043        9.3786381311       35.6262329867  MEMB      98              0.0000000000
     13025       104  POPC      H6R            27.1527094470        9.2971152857       36.6185219174  MEMB      98              0.0000000000
     13026       104  POPC      H6S            27.3665400551       10.3537369429       35.1803513919  MEMB      98              0.0000000000
     13027       104  POPC      C27            29.1796880712        9.3300433420       35.8656474751  MEMB      98              0.0000000000
     13028       104  POPC      H7R            29.6919128844        9.6286295567       34.9235994089  MEMB      98              0.0000000000
     13029       104  POPC      H7S            29.4671358469        8.2818655146       36.0791979225  MEMB      98              0.0000000000
     13030       104  POPC      C28            29.7296454205       10.2048851488       37.0231500442  MEMB      98              0.0000000000
     13031       104  POPC      H8R            29.2941446250       11.2249081693       36.9308799032  MEMB      98              0.0000000000
     13032       104  POPC      H8S            30.8229273343       10.3255676029       36.8551445762  MEMB      98              0.0000000000
     13033       104  POPC      C29            29.4942948649        9.6572276009       38.4145478151  MEMB      98              0.0000000000
     13034       104  POPC      H91            28.5797611029       10.0436358240       38.8902380976  MEMB      98              0.0000000000
     13035       104  POPC      C210           30.2517274870        8.7805715101       39.1181874830  MEMB      98              0.0000000000
     13036       104  POPC      H101           29.9578626405        8.5272785554       40.1446778844  MEMB      98              0.0000000000
     13037       104  POPC      C211           31.5351546399        8.0956651999       38.7368064275  MEMB      98              0.0000000000
     13038       104  POPC      H11R           32.3108988034        8.2784966263       39.5115767111  MEMB      98              0.0000000000
     13039       104  POPC      H11S           31.9154086215        8.4948123754       37.7741989526  MEMB      98              0.0000000000
     13040       104  POPC      C212           31.4507557312        6.5720868512       38.5734805893  MEMB      98              0.0000000000
     13041       104  POPC      H12R           32.4525474293        6.2175575405       38.2686247594  MEMB      98              0.0000000000
     13042       104  POPC      H12S           30.7829162348        6.3648868514       37.7208639194  MEMB      98              0.0000000000
     13043       104  POPC      C213           30.9643444371        5.7423666113       39.7735315795  MEMB      98              0.0000000000
     13044       104  POPC      H13R           31.0283835426        4.6698244715       39.4736213177  MEMB      98              0.0000000000
     13045       104  POPC      H13S           29.8970888106        5.9636751931       39.9597929745  MEMB      98              0.0000000000
     13046       104  POPC      C214           31.7112360246        5.9087214685       41.1034504093  MEMB      98              0.0000000000
     13047       104  POPC      H14R           31.3539184746        6.8276779341       41.6181667890  MEMB      98              0.0000000000
     13048       104  POPC      H14S           32.7974736990        6.0327794612       40.9032190491  MEMB      98              0.0000000000
     13049       104  POPC      C215           31.5316330214        4.6771393169       42.0157995583  MEMB      98              0.0000000000
     13050       104  POPC      H15R           32.0519066746        4.8454373376       42.9837573876  MEMB      98              0.0000000000
     13051       104  POPC      H15S           32.0356178563        3.8230110733       41.5091860917  MEMB      98              0.0000000000
     13052       104  POPC      C216           30.0679550544        4.2706563189       42.2767582829  MEMB      98              0.0000000000
     13053       104  POPC      H16R           29.5014589966        4.2695905668       41.3183820919  MEMB      98              0.0000000000
     13054       104  POPC      H16S           29.5832396706        5.0081456792       42.9511763711  MEMB      98              0.0000000000
     13055       104  POPC      C217           29.9148576912        2.8613886187       42.8661174745  MEMB      98              0.0000000000
     13056       104  POPC      H17R           30.4903491168        2.1479511258       42.2351162024  MEMB      98              0.0000000000
     13057       104  POPC      H17S           28.8383355156        2.5745857278       42.7985505584  MEMB      98              0.0000000000
     13058       104  POPC      C218           30.3544583807        2.7238644624       44.3211128796  MEMB      98              0.0000000000
     13059       104  POPC      H18R           31.4306217088        2.9732254244       44.4396552371  MEMB      98              0.0000000000
     13060       104  POPC      H18S           30.1903375189        1.6863160749       44.6820705177  MEMB      98              0.0000000000
     13061       104  POPC      H18T           29.7555643396        3.4067996155       44.9609509432  MEMB      98              0.0000000000
     13062       104  POPC      C33            31.7183283084        1.1298933741       31.5960971624  MEMB      98              0.0000000000
     13063       104  POPC      H3X            32.4199442965        0.2631909906       31.4865546745  MEMB      98              0.0000000000
     13064       104  POPC      H3Y            30.9411039793        0.7088692123       32.2368018576  MEMB      98              0.0000000000
     13065       104  POPC      C34            32.6379908073        2.2222340458       32.2679655680  MEMB      98              0.0000000000
     13066       104  POPC      H4X            33.2126113094        2.6201932750       31.4001992424  MEMB      98              0.0000000000
     13067       104  POPC      H4Y            33.3586152434        1.6771789972       32.9178799514  MEMB      98              0.0000000000
     13068       104  POPC      C35            32.2156878325        3.5076872244       33.0873658388  MEMB      98              0.0000000000
     13069       104  POPC      H5X            31.4899875576        4.1359935618       32.5769405892  MEMB      98              0.0000000000
     13070       104  POPC      H5Y            33.1483219742        4.1237357081       33.1155351910  MEMB      98              0.0000000000
     13071       104  POPC      C36            31.7599273860        3.4133403546       34.5661686045  MEMB      98              0.0000000000
     13072       104  POPC      H6X            32.5467081142        2.8294984439       35.0764447396  MEMB      98              0.0000000000
     13073       104  POPC      H6Y            30.8475275811        2.8288523900       34.6696033734  MEMB      98              0.0000000000
     13074       104  POPC      C37            31.5408359625        4.7394044968       35.3757340717  MEMB      98              0.0000000000
     13075       104  POPC      H7X            32.4007290096        5.4106857464       35.1577245433  MEMB      98              0.0000000000
     13076       104  POPC      H7Y            31.5838536614        4.4800357125       36.4581042570  MEMB      98              0.0000000000
     13077       104  POPC      C38            30.2376971562        5.5800627972       35.2246531585  MEMB      98              0.0000000000
     13078       104  POPC      H8X            30.1036557774        5.8071060051       34.1449921033  MEMB      98              0.0000000000
     13079       104  POPC      H8Y            30.4134114148        6.5596252930       35.7068311685  MEMB      98              0.0000000000
     13080       104  POPC      C39            28.9048271704        4.9994620940       35.7912298935  MEMB      98              0.0000000000
     13081       104  POPC      H9X            28.8635232358        3.9214782723       35.5990549164  MEMB      98              0.0000000000
     13082       104  POPC      H9Y            28.0733834026        5.4099841077       35.1867284229  MEMB      98              0.0000000000
     13083       104  POPC      C310           28.5412277545        5.2432085796       37.2661596489  MEMB      98              0.0000000000
     13084       104  POPC      H10X           28.6383361974        6.3309636029       37.4817726780  MEMB      98              0.0000000000
     13085       104  POPC      H10Y           29.2555407789        4.6843078683       37.9084781428  MEMB      98              0.0000000000
     13086       104  POPC      C311           27.1015929371        4.8107553286       37.6225906565  MEMB      98              0.0000000000
     13087       104  POPC      H11X           26.9156678074        3.7813350775       37.2589044992  MEMB      98              0.0000000000
     13088       104  POPC      H11Y           26.3848861191        5.4804357929       37.0966137511  MEMB      98              0.0000000000
     13089       104  POPC      C312           26.8001002932        4.8168199803       39.1302110906  MEMB      98              0.0000000000
     13090       104  POPC      H12X           27.4744286565        4.0878557689       39.6364863220  MEMB      98              0.0000000000
     13091       104  POPC      H12Y           25.7527557678        4.4819187314       39.2910576215  MEMB      98              0.0000000000
     13092       104  POPC      C313           26.9931125378        6.1927099552       39.7737522126  MEMB      98              0.0000000000
     13093       104  POPC      H13X           26.3538640515        6.9473784295       39.2715393769  MEMB      98              0.0000000000
     13094       104  POPC      H13Y           28.0376253773        6.5071546509       39.5878906955  MEMB      98              0.0000000000
     13095       104  POPC      C314           26.7386281462        6.2157712269       41.2900394609  MEMB      98              0.0000000000
     13096       104  POPC      H14X           26.9333181205        5.2026172031       41.7092087867  MEMB      98              0.0000000000
     13097       104  POPC      H14Y           25.6683612030        6.4559442607       41.4685124604  MEMB      98              0.0000000000
     13098       104  POPC      C315           27.6330325287        7.2058998667       42.0492164112  MEMB      98              0.0000000000
     13099       104  POPC      H15X           28.6622570118        6.7827846268       42.0848248081  MEMB      98              0.0000000000
     13100       104  POPC      H15Y           27.2744488015        7.2941667203       43.1003303690  MEMB      98              0.0000000000
     13101       104  POPC      C316           27.7179202220        8.5907718932       41.4135595505  MEMB      98              0.0000000000
     13102       104  POPC      H16X           28.5010136464        9.2009321226       41.9050330816  MEMB      98              0.0000000000
     13103       104  POPC      H16Y           27.9367896780        8.5150511934       40.3347436790  MEMB      98              0.0000000000
     13104       104  POPC      H16Z           26.7618257121        9.1238195481       41.4722936690  MEMB      98              0.0000000000
     13105       105  POPC      N               7.4006724595       20.1506484461       26.3200873592  MEMB      99              0.0000000000
     13106       105  POPC      C12             7.8911689876       19.2250698143       27.4242541532  MEMB      99              0.0000000000
     13107       105  POPC      H12A            7.4622578225       18.2384306038       27.2650265418  MEMB      99              0.0000000000
     13108       105  POPC      H12B            7.5423768322       19.5991517285       28.3720464459  MEMB      99              0.0000000000
     13109       105  POPC      C13             8.1093581218       19.7571377488       25.0742227248  MEMB      99              0.0000000000
     13110       105  POPC      H13A            7.9801100757       18.7131520255       24.8040802402  MEMB      99              0.0000000000
     13111       105  POPC      H13B            7.8281317900       20.3549293496       24.2178730661  MEMB      99              0.0000000000
     13112       105  POPC      H13C            9.1873950356       19.9202224674       25.2032850168  MEMB      99              0.0000000000
     13113       105  POPC      C14             5.9336493397       20.0435194763       26.1214526255  MEMB      99              0.0000000000
     13114       105  POPC      H14A            5.6715710533       18.9944878561       25.9979772983  MEMB      99              0.0000000000
     13115       105  POPC      H14B            5.3840508264       20.4555380151       26.9508558308  MEMB      99              0.0000000000
     13116       105  POPC      H14C            5.6329841827       20.5628761803       25.2097232954  MEMB      99              0.0000000000
     13117       105  POPC      C15             7.8271374048       21.5658057347       26.5989983832  MEMB      99              0.0000000000
     13118       105  POPC      H15A            7.4284676029       21.9609058876       27.5161326621  MEMB      99              0.0000000000
     13119       105  POPC      H15B            7.6352321906       22.2221933151       25.7644016251  MEMB      99              0.0000000000
     13120       105  POPC      H15C            8.9209235369       21.5650720589       26.7034065372  MEMB      99              0.0000000000
     13121       105  POPC      C11             9.4235604633       19.0116961517       27.5544137652  MEMB      99              0.0000000000
     13122       105  POPC      H11A            9.7743784400       18.3990451661       26.6888845733  MEMB      99              0.0000000000
     13123       105  POPC      H11B            9.6061911326       18.3819094240       28.4512948703  MEMB      99              0.0000000000
     13124       105  POPC      P              11.3671281011       20.5692261973       26.7471253495  MEMB      99              0.0000000000
     13125       105  POPC      O13            10.8068335678       21.1499136531       25.5059431529  MEMB      99              0.0000000000
     13126       105  POPC      O14            12.1027840989       19.2988790299       26.6247311272  MEMB      99              0.0000000000
     13127       105  POPC      O12            10.1304560790       20.2455303566       27.7048831458  MEMB      99              0.0000000000
     13128       105  POPC      O11            12.2186545698       21.6854009095       27.4756920934  MEMB      99              0.0000000000
     13129       105  POPC      C1             11.6377617307       22.7402592264       28.2314838582  MEMB      99              0.0000000000
     13130       105  POPC      HA             10.5510774212       22.8807385226       28.0215954758  MEMB      99              0.0000000000
     13131       105  POPC      HB             12.1364073552       23.6954660638       27.9550112086  MEMB      99              0.0000000000
     13132       105  POPC      C2             11.8332638473       22.4921513325       29.7436497400  MEMB      99              0.0000000000
     13133       105  POPC      HS             12.9265650037       22.3686002912       29.9235880856  MEMB      99              0.0000000000
     13134       105  POPC      O21            11.0714404399       21.3280406755       30.0985665841  MEMB      99              0.0000000000
     13135       105  POPC      C21            11.6713558444       20.4378508971       30.8443190892  MEMB      99              0.0000000000
     13136       105  POPC      O22            12.7264541539       20.5854064885       31.4381154101  MEMB      99              0.0000000000
     13137       105  POPC      C22            10.8440323200       19.1503368841       30.8003494505  MEMB      99              0.0000000000
     13138       105  POPC      H2R            11.3361521470       18.4979399574       30.0475592746  MEMB      99              0.0000000000
     13139       105  POPC      H2S             9.8218319819       19.3950189799       30.4430345912  MEMB      99              0.0000000000
     13140       105  POPC      C3             11.3244802486       23.6956547046       30.5588774827  MEMB      99              0.0000000000
     13141       105  POPC      HX             11.8666696027       24.6131810699       30.2389466000  MEMB      99              0.0000000000
     13142       105  POPC      HY             11.5782566937       23.5062807744       31.6297213082  MEMB      99              0.0000000000
     13143       105  POPC      O31             9.9165223869       23.8560334314       30.2916065926  MEMB      99              0.0000000000
     13144       105  POPC      C31             9.1310081693       23.8857212267       31.3482940011  MEMB      99              0.0000000000
     13145       105  POPC      O32             9.5065896721       23.9722611798       32.5012671372  MEMB      99              0.0000000000
     13146       105  POPC      C32             7.6740643828       23.8291296609       30.8564928247  MEMB      99              0.0000000000
     13147       105  POPC      H2X             7.5528119916       22.9042484939       30.2572253431  MEMB      99              0.0000000000
     13148       105  POPC      H2Y             7.5242837882       24.6945903654       30.1825664082  MEMB      99              0.0000000000
     13149       105  POPC      C23            10.7583941485       18.4323570051       32.1600197688  MEMB      99              0.0000000000
     13150       105  POPC      H3R            11.7783150324       18.2922970962       32.5849931592  MEMB      99              0.0000000000
     13151       105  POPC      H3S            10.3273054469       17.4211614661       31.9852240607  MEMB      99              0.0000000000
     13152       105  POPC      C24             9.8692305529       19.1903259101       33.1571006177  MEMB      99              0.0000000000
     13153       105  POPC      H4R             8.8290918175       19.2414695282       32.7659645672  MEMB      99              0.0000000000
     13154       105  POPC      H4S            10.2448058623       20.2357186316       33.2504921783  MEMB      99              0.0000000000
     13155       105  POPC      C25             9.8536486575       18.5656504402       34.5570698550  MEMB      99              0.0000000000
     13156       105  POPC      H5R             9.3563970116       19.2581550646       35.2724573372  MEMB      99              0.0000000000
     13157       105  POPC      H5S            10.9080038547       18.4448582774       34.8945805288  MEMB      99              0.0000000000
     13158       105  POPC      C26             9.1350281702       17.2139726239       34.6003100678  MEMB      99              0.0000000000
     13159       105  POPC      H6R             9.4876531242       16.5923197626       33.7480214769  MEMB      99              0.0000000000
     13160       105  POPC      H6S             8.0390783423       17.3438211906       34.4845018682  MEMB      99              0.0000000000
     13161       105  POPC      C27             9.4567440699       16.4329103262       35.8740349220  MEMB      99              0.0000000000
     13162       105  POPC      H7R            10.5592673799       16.4756105012       36.0139107679  MEMB      99              0.0000000000
     13163       105  POPC      H7S             9.1836547810       15.3684964199       35.7086594156  MEMB      99              0.0000000000
     13164       105  POPC      C28             8.7786205008       16.9461143313       37.1504636158  MEMB      99              0.0000000000
     13165       105  POPC      H8R             7.6728218707       16.8611876067       37.0586898168  MEMB      99              0.0000000000
     13166       105  POPC      H8S             9.0325792118       18.0179980384       37.3040147196  MEMB      99              0.0000000000
     13167       105  POPC      C29             9.3320078003       16.1037465969       38.2662250930  MEMB      99              0.0000000000
     13168       105  POPC      H91            10.2963264222       15.6208640370       38.0416840028  MEMB      99              0.0000000000
     13169       105  POPC      C210            8.7978557844       15.8826806334       39.4684004672  MEMB      99              0.0000000000
     13170       105  POPC      H101            9.3801289746       15.2935612982       40.1831344387  MEMB      99              0.0000000000
     13171       105  POPC      C211            7.5207337782       16.4055361734       40.0484460249  MEMB      99              0.0000000000
     13172       105  POPC      H11R            6.7460151969       15.6112534075       40.0913267861  MEMB      99              0.0000000000
     13173       105  POPC      H11S            7.1056981275       17.2643258151       39.4739899509  MEMB      99              0.0000000000
     13174       105  POPC      C212            7.8764116524       16.8439644376       41.4758189891  MEMB      99              0.0000000000
     13175       105  POPC      H12R            8.3017632627       16.0059775166       42.0733549514  MEMB      99              0.0000000000
     13176       105  POPC      H12S            6.9399368630       17.1231591771       41.9806735355  MEMB      99              0.0000000000
     13177       105  POPC      C213            8.8423167542       18.0378219306       41.4872569065  MEMB      99              0.0000000000
     13178       105  POPC      H13R            8.5224213336       18.7722682881       40.7155832824  MEMB      99              0.0000000000
     13179       105  POPC      H13S            9.8586649360       17.6824280781       41.2019834590  MEMB      99              0.0000000000
     13180       105  POPC      C214            8.9416214700       18.7465993636       42.8405280599  MEMB      99              0.0000000000
     13181       105  POPC      H14R            9.7334871594       19.5163790455       42.7901322571  MEMB      99              0.0000000000
     13182       105  POPC      H14S            9.2722927104       18.0010014311       43.5938825659  MEMB      99              0.0000000000
     13183       105  POPC      C215            7.6429152253       19.4195738311       43.3065072828  MEMB      99              0.0000000000
     13184       105  POPC      H15R            7.8000559406       19.8272802996       44.3252180369  MEMB      99              0.0000000000
     13185       105  POPC      H15S            6.8612241197       18.6446169716       43.4006895805  MEMB      99              0.0000000000
     13186       105  POPC      C216            7.0896577628       20.5229761415       42.3914839169  MEMB      99              0.0000000000
     13187       105  POPC      H16R            6.1024239486       20.8304633458       42.8050892566  MEMB      99              0.0000000000
     13188       105  POPC      H16S            6.9129180671       20.1149576108       41.3717589748  MEMB      99              0.0000000000
     13189       105  POPC      C217            7.9642560723       21.7762168371       42.2992346411  MEMB      99              0.0000000000
     13190       105  POPC      H17R            7.3861450102       22.5745993268       41.7776961136  MEMB      99              0.0000000000
     13191       105  POPC      H17S            8.8443725183       21.5374456984       41.6686384538  MEMB      99              0.0000000000
     13192       105  POPC      C218            8.4466234757       22.2916006979       43.6538281026  MEMB      99              0.0000000000
     13193       105  POPC      H18R            9.1858273548       21.5983765827       44.1065243414  MEMB      99              0.0000000000
     13194       105  POPC      H18S            7.5901190826       22.3701950397       44.3514714357  MEMB      99              0.0000000000
     13195       105  POPC      H18T            8.9255530265       23.2858003142       43.5558342558  MEMB      99              0.0000000000
     13196       105  POPC      C33             6.6211753248       23.8646667776       31.9866190546  MEMB      99              0.0000000000
     13197       105  POPC      H3X             5.7830179048       24.5297974803       31.6728352543  MEMB      99              0.0000000000
     13198       105  POPC      H3Y             7.0339485581       24.3083032170       32.9210762576  MEMB      99              0.0000000000
     13199       105  POPC      C34             6.0288453716       22.4810326272       32.2790502874  MEMB      99              0.0000000000
     13200       105  POPC      H4X             5.5811585921       22.0743392608       31.3462462590  MEMB      99              0.0000000000
     13201       105  POPC      H4Y             5.2125036268       22.5930051522       33.0260918936  MEMB      99              0.0000000000
     13202       105  POPC      C35             7.0176897849       21.4570816155       32.8537792769  MEMB      99              0.0000000000
     13203       105  POPC      H5X             7.8073243448       21.2263856584       32.1052369819  MEMB      99              0.0000000000
     13204       105  POPC      H5Y             6.4540567838       20.5183833191       33.0425042088  MEMB      99              0.0000000000
     13205       105  POPC      C36             7.6824329045       21.8475953862       34.1844003383  MEMB      99              0.0000000000
     13206       105  POPC      H6X             8.4692751694       22.6065294248       34.0179892529  MEMB      99              0.0000000000
     13207       105  POPC      H6Y             8.1946974410       20.9416603761       34.5689750767  MEMB      99              0.0000000000
     13208       105  POPC      C37             6.7421025153       22.3960638883       35.2662528347  MEMB      99              0.0000000000
     13209       105  POPC      H7X             6.0300584300       21.5952391816       35.5497589892  MEMB      99              0.0000000000
     13210       105  POPC      H7Y             6.1584208331       23.2505082382       34.8581794845  MEMB      99              0.0000000000
     13211       105  POPC      C38             7.4956822486       22.8997762608       36.5083587009  MEMB      99              0.0000000000
     13212       105  POPC      H8X             6.7627677143       23.2966190005       37.2449160197  MEMB      99              0.0000000000
     13213       105  POPC      H8Y             8.1553704135       23.7440205615       36.1991251217  MEMB      99              0.0000000000
     13214       105  POPC      C39             8.3562190388       21.8195814108       37.1760145721  MEMB      99              0.0000000000
     13215       105  POPC      H9X             9.0515445589       21.3812909794       36.4259575839  MEMB      99              0.0000000000
     13216       105  POPC      H9Y             7.7061126863       20.9970896563       37.5467159905  MEMB      99              0.0000000000
     13217       105  POPC      C310            9.2224717038       22.3612822171       38.3166553886  MEMB      99              0.0000000000
     13218       105  POPC      H10X            8.5731157520       22.8124454661       39.0999896526  MEMB      99              0.0000000000
     13219       105  POPC      H10Y            9.8886431311       23.1605512491       37.9203893389  MEMB      99              0.0000000000
     13220       105  POPC      C311           10.0721837687       21.2448591745       38.9302514180  MEMB      99              0.0000000000
     13221       105  POPC      H11X           10.6631794938       20.7328158212       38.1384302227  MEMB      99              0.0000000000
     13222       105  POPC      H11Y            9.3720102455       20.4901429582       39.3583915333  MEMB      99              0.0000000000
     13223       105  POPC      C312           11.0222060551       21.7299493889       40.0315209383  MEMB      99              0.0000000000
     13224       105  POPC      H12X           10.4618298308       22.4095836380       40.7102524599  MEMB      99              0.0000000000
     13225       105  POPC      H12Y           11.8523747070       22.3283701055       39.5989533306  MEMB      99              0.0000000000
     13226       105  POPC      C313           11.5810830263       20.5548643680       40.8476548437  MEMB      99              0.0000000000
     13227       105  POPC      H13X           12.4960454493       20.1591169769       40.3557243349  MEMB      99              0.0000000000
     13228       105  POPC      H13Y           10.8336495416       19.7333163753       40.8322794943  MEMB      99              0.0000000000
     13229       105  POPC      C314           11.8643950100       20.8924567424       42.3195901640  MEMB      99              0.0000000000
     13230       105  POPC      H14X           12.1389247701       19.9536494945       42.8538442823  MEMB      99              0.0000000000
     13231       105  POPC      H14Y           10.9533738640       21.3059752710       42.7994929990  MEMB      99              0.0000000000
     13232       105  POPC      C315           12.9995965979       21.8960870296       42.4662318599  MEMB      99              0.0000000000
     13233       105  POPC      H15X           12.7031549599       22.8677775199       42.0163576394  MEMB      99              0.0000000000
     13234       105  POPC      H15Y           13.8231665661       21.4817362146       41.8584649820  MEMB      99              0.0000000000
     13235       105  POPC      C316           13.5039194364       22.1012892825       43.8936190688  MEMB      99              0.0000000000
     13236       105  POPC      H16X           14.2366769463       22.9352060114       43.9296004103  MEMB      99              0.0000000000
     13237       105  POPC      H16Y           14.0207331447       21.1855624036       44.2462650469  MEMB      99              0.0000000000
     13238       105  POPC      H16Z           12.6659750654       22.3305276591       44.5840505994  MEMB      99              0.0000000000
     13239       106  POPC      N              50.0671905930       60.1039266569       26.9310905623  MEMB      100             0.0000000000
     13240       106  POPC      C12            48.8348123747       59.3560775716       27.4205492122  MEMB      100             0.0000000000
     13241       106  POPC      H12A           47.9957186554       60.0299871856       27.4493703927  MEMB      100             0.0000000000
     13242       106  POPC      H12B           49.0186638507       59.0025698676       28.4310509029  MEMB      100             0.0000000000
     13243       106  POPC      C13            51.2222155933       59.1567474203       26.8160052612  MEMB      100             0.0000000000
     13244       106  POPC      H13A           51.3832186529       58.6535757289       27.7597560260  MEMB      100             0.0000000000
     13245       106  POPC      H13B           50.9598895606       58.3687539622       26.1101214923  MEMB      100             0.0000000000
     13246       106  POPC      H13C           52.1249508008       59.6657670663       26.4988752949  MEMB      100             0.0000000000
     13247       106  POPC      C14            49.8209373210       60.6919062361       25.5734582544  MEMB      100             0.0000000000
     13248       106  POPC      H14A           49.5515612829       59.9100509434       24.8560341030  MEMB      100             0.0000000000
     13249       106  POPC      H14B           49.0324302084       61.4296026791       25.6190155989  MEMB      100             0.0000000000
     13250       106  POPC      H14C           50.7095975244       61.2125994409       25.2324817282  MEMB      100             0.0000000000
     13251       106  POPC      C15            50.4243935034       61.2170319835       27.8517611668  MEMB      100             0.0000000000
     13252       106  POPC      H15A           51.1961212542       61.8603653565       27.4149527103  MEMB      100             0.0000000000
     13253       106  POPC      H15B           50.7273095911       60.9067617428       28.8372739802  MEMB      100             0.0000000000
     13254       106  POPC      H15C           49.6011857602       61.9183104245       27.9849071596  MEMB      100             0.0000000000
     13255       106  POPC      C11            48.4233741513       58.1068037789       26.6240649450  MEMB      100             0.0000000000
     13256       106  POPC      H11A           48.4882058556       58.3284767724       25.5306320093  MEMB      100             0.0000000000
     13257       106  POPC      H11B           47.3662408285       57.8343810008       26.8453522413  MEMB      100             0.0000000000
     13258       106  POPC      P              49.5275315030       55.8117778783       26.0639232496  MEMB      100             0.0000000000
     13259       106  POPC      O13            50.8689319626       55.2422124751       26.3273301125  MEMB      100             0.0000000000
     13260       106  POPC      O14            49.2369117836       56.2487552197       24.6831829579  MEMB      100             0.0000000000
     13261       106  POPC      O12            49.2753518722       57.0441574046       27.0294635433  MEMB      100             0.0000000000
     13262       106  POPC      O11            48.3833840864       54.7983428574       26.4379373959  MEMB      100             0.0000000000
     13263       106  POPC      C1             48.5165108737       53.5776327633       27.1359120613  MEMB      100             0.0000000000
     13264       106  POPC      HA             49.5552039940       53.1836978531       27.0987161036  MEMB      100             0.0000000000
     13265       106  POPC      HB             47.8483329751       52.8406508885       26.6434054144  MEMB      100             0.0000000000
     13266       106  POPC      C2             48.0808415859       53.7320571260       28.6058373831  MEMB      100             0.0000000000
     13267       106  POPC      HS             47.1453881342       54.3493597669       28.6142394762  MEMB      100             0.0000000000
     13268       106  POPC      O21            49.1849451133       54.3054199920       29.3446281396  MEMB      100             0.0000000000
     13269       106  POPC      C21            48.9627989606       55.5325529579       29.7493402532  MEMB      100             0.0000000000
     13270       106  POPC      O22            47.8934241617       56.1149954371       29.7396578304  MEMB      100             0.0000000000
     13271       106  POPC      C22            50.2260777804       56.1258740991       30.3647953540  MEMB      100             0.0000000000
     13272       106  POPC      H2R            51.0942272017       55.8303695575       29.7392173125  MEMB      100             0.0000000000
     13273       106  POPC      H2S            50.3333954092       55.6633227425       31.3662828081  MEMB      100             0.0000000000
     13274       106  POPC      C3             47.6704658996       52.4008203348       29.2698785663  MEMB      100             0.0000000000
     13275       106  POPC      HX             48.4857313137       51.6549226618       29.1279164578  MEMB      100             0.0000000000
     13276       106  POPC      HY             46.7673225801       52.0094298243       28.7542061197  MEMB      100             0.0000000000
     13277       106  POPC      O31            47.3511720501       52.6853928220       30.6495368070  MEMB      100             0.0000000000
     13278       106  POPC      C31            48.2507122332       52.2637009892       31.5160701074  MEMB      100             0.0000000000
     13279       106  POPC      O32            49.0527117946       51.3668280135       31.3428310910  MEMB      100             0.0000000000
     13280       106  POPC      C32            48.1960585802       53.0920339502       32.7924560525  MEMB      100             0.0000000000
     13281       106  POPC      H2X            47.5664950706       52.5584044862       33.5326806601  MEMB      100             0.0000000000
     13282       106  POPC      H2Y            47.7370039512       54.0682301101       32.5581643573  MEMB      100             0.0000000000
     13283       106  POPC      C23            50.1576140363       57.6714206220       30.4844786002  MEMB      100             0.0000000000
     13284       106  POPC      H3R            49.1115049897       58.0430912772       30.5848678987  MEMB      100             0.0000000000
     13285       106  POPC      H3S            50.5824092694       58.1011951289       29.5499494506  MEMB      100             0.0000000000
     13286       106  POPC      C24            50.9312423082       58.1824460786       31.7034857290  MEMB      100             0.0000000000
     13287       106  POPC      H4R            51.1536375251       59.2660944586       31.5987793040  MEMB      100             0.0000000000
     13288       106  POPC      H4S            51.9016660948       57.6357544603       31.7230904826  MEMB      100             0.0000000000
     13289       106  POPC      C25            50.1838865935       57.9445129865       33.0288155531  MEMB      100             0.0000000000
     13290       106  POPC      H5R            50.8996046330       57.5992287064       33.8043838824  MEMB      100             0.0000000000
     13291       106  POPC      H5S            49.4611546223       57.1126802760       32.8738268297  MEMB      100             0.0000000000
     13292       106  POPC      C26            49.3986097988       59.1679120341       33.5415647188  MEMB      100             0.0000000000
     13293       106  POPC      H6R            48.4141364774       58.8113935641       33.9264646721  MEMB      100             0.0000000000
     13294       106  POPC      H6S            49.1701964724       59.8427057519       32.6878514863  MEMB      100             0.0000000000
     13295       106  POPC      C27            50.0759122832       59.9805962694       34.6692770587  MEMB      100             0.0000000000
     13296       106  POPC      H7R            49.3800618795       60.7994039998       34.9628304712  MEMB      100             0.0000000000
     13297       106  POPC      H7S            51.0000369044       60.4561784807       34.2747298364  MEMB      100             0.0000000000
     13298       106  POPC      C28            50.4457842652       59.1830878902       35.9413322976  MEMB      100             0.0000000000
     13299       106  POPC      H8R            50.8106072848       59.9002118211       36.7114881601  MEMB      100             0.0000000000
     13300       106  POPC      H8S            51.3152655267       58.5270169819       35.7132863956  MEMB      100             0.0000000000
     13301       106  POPC      C29            49.3114386823       58.3355781446       36.4622259854  MEMB      100             0.0000000000
     13302       106  POPC      H91            49.0946429796       57.4442605758       35.8520788950  MEMB      100             0.0000000000
     13303       106  POPC      C210           48.5759595384       58.5575684396       37.5643626370  MEMB      100             0.0000000000
     13304       106  POPC      H101           47.7947192476       57.8287568338       37.8293533702  MEMB      100             0.0000000000
     13305       106  POPC      C211           48.7399321330       59.7184785234       38.5115996338  MEMB      100             0.0000000000
     13306       106  POPC      H11R           48.9651536046       60.6536742444       37.9495490083  MEMB      100             0.0000000000
     13307       106  POPC      H11S           49.6021930624       59.5370584956       39.1907824881  MEMB      100             0.0000000000
     13308       106  POPC      C212           47.4937719505       59.9756045360       39.3815272024  MEMB      100             0.0000000000
     13309       106  POPC      H12R           46.6182568166       60.2328659991       38.7437377127  MEMB      100             0.0000000000
     13310       106  POPC      H12S           47.7049959610       60.8654170336       40.0181746061  MEMB      100             0.0000000000
     13311       106  POPC      C213           47.1281632969       58.7985934792       40.3032343538  MEMB      100             0.0000000000
     13312       106  POPC      H13R           48.0581387569       58.3516995194       40.7180693974  MEMB      100             0.0000000000
     13313       106  POPC      H13S           46.6018985568       58.0166671344       39.7125893493  MEMB      100             0.0000000000
     13314       106  POPC      C214           46.2418199401       59.2282019786       41.4785472542  MEMB      100             0.0000000000
     13315       106  POPC      H14R           45.4094555564       59.8570471041       41.0864384650  MEMB      100             0.0000000000
     13316       106  POPC      H14S           46.8540676579       59.8499472341       42.1689301152  MEMB      100             0.0000000000
     13317       106  POPC      C215           45.6329005493       58.0554771674       42.2612767732  MEMB      100             0.0000000000
     13318       106  POPC      H15R           46.4312778023       57.3708915884       42.6166637590  MEMB      100             0.0000000000
     13319       106  POPC      H15S           44.9817661285       57.4827812362       41.5683121222  MEMB      100             0.0000000000
     13320       106  POPC      C216           44.7693283348       58.5093608937       43.4474537649  MEMB      100             0.0000000000
     13321       106  POPC      H16R           44.1372307818       59.3571133991       43.1084694349  MEMB      100             0.0000000000
     13322       106  POPC      H16S           45.4168149575       58.8768554367       44.2726793748  MEMB      100             0.0000000000
     13323       106  POPC      C217           43.8242361387       57.4140750854       43.9592394343  MEMB      100             0.0000000000
     13324       106  POPC      H17R           44.4229453081       56.5805636282       44.3869232968  MEMB      100             0.0000000000
     13325       106  POPC      H17S           43.2627433421       57.0049899345       43.0905510715  MEMB      100             0.0000000000
     13326       106  POPC      C218           42.8142316229       57.9166032549       44.9929971115  MEMB      100             0.0000000000
     13327       106  POPC      H18R           42.1477928905       58.6823783325       44.5397031736  MEMB      100             0.0000000000
     13328       106  POPC      H18S           43.3345702161       58.3778483781       45.8590335341  MEMB      100             0.0000000000
     13329       106  POPC      H18T           42.1843064271       57.0778663881       45.3613423167  MEMB      100             0.0000000000
     13330       106  POPC      C33            49.6228272929       53.2999347149       33.3433118277  MEMB      100             0.0000000000
     13331       106  POPC      H3X            50.3190046405       53.6303463180       32.5378872875  MEMB      100             0.0000000000
     13332       106  POPC      H3Y            50.0045416592       52.3246224622       33.7247090600  MEMB      100             0.0000000000
     13333       106  POPC      C34            49.6603360011       54.3191391714       34.4809567582  MEMB      100             0.0000000000
     13334       106  POPC      H4X            48.9256858106       53.9796767380       35.2482070834  MEMB      100             0.0000000000
     13335       106  POPC      H4Y            49.3414953255       55.3190484937       34.1200584514  MEMB      100             0.0000000000
     13336       106  POPC      C35            51.0420252601       54.4171779315       35.1381401265  MEMB      100             0.0000000000
     13337       106  POPC      H5X            51.7655232902       54.9640852822       34.4969185897  MEMB      100             0.0000000000
     13338       106  POPC      H5Y            51.4278555394       53.3815801215       35.2508556038  MEMB      100             0.0000000000
     13339       106  POPC      C36            50.9620929787       55.0629243720       36.5262324011  MEMB      100             0.0000000000
     13340       106  POPC      H6X            49.9478953686       54.8559107495       36.9413033393  MEMB      100             0.0000000000
     13341       106  POPC      H6Y            51.0486528106       56.1657171041       36.4505816650  MEMB      100             0.0000000000
     13342       106  POPC      C37            51.9731026504       54.5040508833       37.5392620818  MEMB      100             0.0000000000
     13343       106  POPC      H7X            52.2939973296       53.4739332865       37.2843365189  MEMB      100             0.0000000000
     13344       106  POPC      H7Y            51.4279672537       54.4183118223       38.5067397431  MEMB      100             0.0000000000
     13345       106  POPC      C38            53.1965223865       55.3978458059       37.7297358541  MEMB      100             0.0000000000
     13346       106  POPC      H8X            52.9266621564       56.4478829878       37.4768079708  MEMB      100             0.0000000000
     13347       106  POPC      H8Y            53.9972814569       55.0935595438       37.0178445385  MEMB      100             0.0000000000
     13348       106  POPC      C39            53.7477593864       55.3867964757       39.1630927875  MEMB      100             0.0000000000
     13349       106  POPC      H9X            54.5227146827       56.1795706426       39.1998765070  MEMB      100             0.0000000000
     13350       106  POPC      H9Y            54.2295837085       54.4092860615       39.3845939970  MEMB      100             0.0000000000
     13351       106  POPC      C310           52.7535583698       55.7304879075       40.2827130656  MEMB      100             0.0000000000
     13352       106  POPC      H10X           53.3441671436       55.9833904213       41.1934751582  MEMB      100             0.0000000000
     13353       106  POPC      H10Y           52.1384759111       54.8380174284       40.5304009643  MEMB      100             0.0000000000
     13354       106  POPC      C311           51.8401651094       56.9147601803       39.9345186336  MEMB      100             0.0000000000
     13355       106  POPC      H11X           50.9843658185       56.5572249386       39.3211883572  MEMB      100             0.0000000000
     13356       106  POPC      H11Y           52.4146745168       57.6434004180       39.3165909763  MEMB      100             0.0000000000
     13357       106  POPC      C312           51.3204521600       57.6808801972       41.1560822697  MEMB      100             0.0000000000
     13358       106  POPC      H12X           50.5641235969       58.4224331747       40.8170420808  MEMB      100             0.0000000000
     13359       106  POPC      H12Y           52.1760034318       58.2515958247       41.5752955925  MEMB      100             0.0000000000
     13360       106  POPC      C313           50.7095444849       56.8178976873       42.2699909480  MEMB      100             0.0000000000
     13361       106  POPC      H13X           50.2745206362       57.5081683502       43.0293131670  MEMB      100             0.0000000000
     13362       106  POPC      H13Y           51.5115612496       56.2337123196       42.7730004692  MEMB      100             0.0000000000
     13363       106  POPC      C314           49.6100255744       55.8638999575       41.7846682897  MEMB      100             0.0000000000
     13364       106  POPC      H14X           50.0649639980       55.0098993408       41.2372147346  MEMB      100             0.0000000000
     13365       106  POPC      H14Y           48.9570181284       56.4027970299       41.0631607191  MEMB      100             0.0000000000
     13366       106  POPC      C315           48.7326260129       55.3211975557       42.9196806573  MEMB      100             0.0000000000
     13367       106  POPC      H15X           47.9691470374       54.6489524168       42.4687629929  MEMB      100             0.0000000000
     13368       106  POPC      H15Y           48.1944591703       56.1760682685       43.3901028317  MEMB      100             0.0000000000
     13369       106  POPC      C316           49.4887928523       54.5555014402       44.0082411206  MEMB      100             0.0000000000
     13370       106  POPC      H16X           48.7865423153       54.2210556955       44.8027761645  MEMB      100             0.0000000000
     13371       106  POPC      H16Y           50.2590432010       55.2008815578       44.4816739276  MEMB      100             0.0000000000
     13372       106  POPC      H16Z           49.9894735094       53.6609299559       43.5793977931  MEMB      100             0.0000000000
     13373       107  POPC      N              44.6366673845        6.2630863878       27.6767005720  MEMB      101             0.0000000000
     13374       107  POPC      C12            43.6004509071        6.9023937689       26.7699890751  MEMB      101             0.0000000000
     13375       107  POPC      H12A           43.9124502589        7.9052090328       26.5164068635  MEMB      101             0.0000000000
     13376       107  POPC      H12B           42.6629835982        6.9903542365       27.3095806516  MEMB      101             0.0000000000
     13377       107  POPC      C13            44.0120549970        5.0637482730       28.3329421413  MEMB      101             0.0000000000
     13378       107  POPC      H13A           43.1315576595        5.3376874873       28.9046709864  MEMB      101             0.0000000000
     13379       107  POPC      H13B           43.6158986247        4.3912877664       27.5632993765  MEMB      101             0.0000000000
     13380       107  POPC      H13C           44.6870094700        4.5213912281       28.9749344893  MEMB      101             0.0000000000
     13381       107  POPC      C14            45.8032261970        5.8330694137       26.8391097166  MEMB      101             0.0000000000
     13382       107  POPC      H14A           45.4487713159        5.1186181213       26.0931867240  MEMB      101             0.0000000000
     13383       107  POPC      H14B           46.2339513250        6.6737792279       26.2995699765  MEMB      101             0.0000000000
     13384       107  POPC      H14C           46.5830759896        5.3892819946       27.4350816168  MEMB      101             0.0000000000
     13385       107  POPC      C15            45.1100936638        7.2374785728       28.7106722827  MEMB      101             0.0000000000
     13386       107  POPC      H15A           44.2905291644        7.6729150719       29.2742575460  MEMB      101             0.0000000000
     13387       107  POPC      H15B           45.6638741487        8.0436000672       28.2418905436  MEMB      101             0.0000000000
     13388       107  POPC      H15C           45.7537167010        6.7400727913       29.4269334801  MEMB      101             0.0000000000
     13389       107  POPC      C11            43.2343943107        6.1329526074       25.4850402609  MEMB      101             0.0000000000
     13390       107  POPC      H11A           44.1217051521        5.8494022129       24.8825956178  MEMB      101             0.0000000000
     13391       107  POPC      H11B           42.6708737251        6.8652386550       24.8479925826  MEMB      101             0.0000000000
     13392       107  POPC      P              41.0856734710        4.7888914514       25.1072224210  MEMB      101             0.0000000000
     13393       107  POPC      O13            41.4142212039        4.4055621991       23.7177141252  MEMB      101             0.0000000000
     13394       107  POPC      O14            40.3273135781        6.0590254816       25.2896591714  MEMB      101             0.0000000000
     13395       107  POPC      O12            42.4876772779        4.9521567092       25.8313385802  MEMB      101             0.0000000000
     13396       107  POPC      O11            40.3902613078        3.5592024279       25.8428929659  MEMB      101             0.0000000000
     13397       107  POPC      C1             39.0834813980        3.7982230244       26.4111339494  MEMB      101             0.0000000000
     13398       107  POPC      HA             38.4609072013        2.8974865144       26.2430018820  MEMB      101             0.0000000000
     13399       107  POPC      HB             38.5190229480        4.6364687007       25.9331780700  MEMB      101             0.0000000000
     13400       107  POPC      C2             39.1169936008        4.0501922996       27.9482237525  MEMB      101             0.0000000000
     13401       107  POPC      HS             38.0804472889        4.2808661358       28.2999362283  MEMB      101             0.0000000000
     13402       107  POPC      O21            40.0388103753        5.0912236913       28.3278785449  MEMB      101             0.0000000000
     13403       107  POPC      C21            39.5297448408        6.3089192267       28.2232883516  MEMB      101             0.0000000000
     13404       107  POPC      O22            38.4576936972        6.5980640557       27.7207056626  MEMB      101             0.0000000000
     13405       107  POPC      C22            40.3658880600        7.2873068597       29.0323051474  MEMB      101             0.0000000000
     13406       107  POPC      H2R            40.4943347727        8.1953196767       28.4081223111  MEMB      101             0.0000000000
     13407       107  POPC      H2S            41.3519470438        6.8478766809       29.2714367193  MEMB      101             0.0000000000
     13408       107  POPC      C3             39.5416998499        2.7575534264       28.6737043876  MEMB      101             0.0000000000
     13409       107  POPC      HX             40.4038591050        2.3496822299       28.0927738673  MEMB      101             0.0000000000
     13410       107  POPC      HY             38.7002420836        2.0335648527       28.5976595874  MEMB      101             0.0000000000
     13411       107  POPC      O31            39.8273161535        3.0140875933       30.0679520290  MEMB      101             0.0000000000
     13412       107  POPC      C31            41.0608013039        2.7571667639       30.4714311234  MEMB      101             0.0000000000
     13413       107  POPC      O32            41.9427051575        2.2624429543       29.7883347411  MEMB      101             0.0000000000
     13414       107  POPC      C32            41.1766913959        3.1159880964       31.9470416827  MEMB      101             0.0000000000
     13415       107  POPC      H2X            40.7093019231        2.2863180141       32.5187260212  MEMB      101             0.0000000000
     13416       107  POPC      H2Y            40.5979241928        4.0362360661       32.1459738844  MEMB      101             0.0000000000
     13417       107  POPC      C23            39.5894233530        7.6519221036       30.3165253005  MEMB      101             0.0000000000
     13418       107  POPC      H3R            38.5014356861        7.7595388492       30.1018631261  MEMB      101             0.0000000000
     13419       107  POPC      H3S            39.9303536359        8.6426997185       30.6763746699  MEMB      101             0.0000000000
     13420       107  POPC      C24            39.8037135819        6.6347257946       31.4397829643  MEMB      101             0.0000000000
     13421       107  POPC      H4R            40.8891026237        6.5860027672       31.6802778020  MEMB      101             0.0000000000
     13422       107  POPC      H4S            39.4828476577        5.6258048602       31.0932991353  MEMB      101             0.0000000000
     13423       107  POPC      C25            39.0263798644        7.0065364348       32.7082763857  MEMB      101             0.0000000000
     13424       107  POPC      H5R            37.9697337839        6.6760357034       32.5874512528  MEMB      101             0.0000000000
     13425       107  POPC      H5S            39.0263626230        8.1140268343       32.8340304638  MEMB      101             0.0000000000
     13426       107  POPC      C26            39.6210808320        6.3859543322       33.9733296392  MEMB      101             0.0000000000
     13427       107  POPC      H6R            40.5465778764        6.9386773348       34.2510883414  MEMB      101             0.0000000000
     13428       107  POPC      H6S            39.9029319769        5.3335434556       33.7474464403  MEMB      101             0.0000000000
     13429       107  POPC      C27            38.6401691673        6.3738124690       35.1595968540  MEMB      101             0.0000000000
     13430       107  POPC      H7R            37.8113792267        5.6783124306       34.9021219986  MEMB      101             0.0000000000
     13431       107  POPC      H7S            38.1887794568        7.3837466351       35.2831258691  MEMB      101             0.0000000000
     13432       107  POPC      C28            39.2670319815        5.9470177166       36.5066999801  MEMB      101             0.0000000000
     13433       107  POPC      H8R            38.4487223089        5.7904340103       37.2441578986  MEMB      101             0.0000000000
     13434       107  POPC      H8S            39.8818043963        6.7966117835       36.8806450255  MEMB      101             0.0000000000
     13435       107  POPC      C29            40.1496264314        4.7310006127       36.3686975965  MEMB      101             0.0000000000
     13436       107  POPC      H91            40.9780373575        4.8772052659       35.6631345586  MEMB      101             0.0000000000
     13437       107  POPC      C210           40.0845494799        3.5485256182       37.0074901670  MEMB      101             0.0000000000
     13438       107  POPC      H101           40.8359588710        2.7869342468       36.7578729106  MEMB      101             0.0000000000
     13439       107  POPC      C211           39.0991267451        3.1038400828       38.0535961138  MEMB      101             0.0000000000
     13440       107  POPC      H11R           38.8285603993        2.0374453429       37.8912414389  MEMB      101             0.0000000000
     13441       107  POPC      H11S           38.1546125733        3.6835813499       38.0030801129  MEMB      101             0.0000000000
     13442       107  POPC      C212           39.6748817373        3.2593307146       39.4680680277  MEMB      101             0.0000000000
     13443       107  POPC      H12R           40.6741639717        2.7840524582       39.5561950281  MEMB      101             0.0000000000
     13444       107  POPC      H12S           39.0099432393        2.7076252538       40.1649231397  MEMB      101             0.0000000000
     13445       107  POPC      C213           39.7503306794        4.7328688965       39.8902238261  MEMB      101             0.0000000000
     13446       107  POPC      H13R           38.7679855754        5.2204428519       39.7018414999  MEMB      101             0.0000000000
     13447       107  POPC      H13S           40.5072627367        5.2569746638       39.2656988725  MEMB      101             0.0000000000
     13448       107  POPC      C214           40.1103553102        4.9037902260       41.3636216341  MEMB      101             0.0000000000
     13449       107  POPC      H14R           41.1353495924        4.5033802711       41.5178612353  MEMB      101             0.0000000000
     13450       107  POPC      H14S           39.4266897546        4.2973121059       41.9955651149  MEMB      101             0.0000000000
     13451       107  POPC      C215           40.0302462248        6.3642571780       41.8267831435  MEMB      101             0.0000000000
     13452       107  POPC      H15R           40.0622827974        6.3733673538       42.9397124316  MEMB      101             0.0000000000
     13453       107  POPC      H15S           39.0518972505        6.8032931498       41.5336824588  MEMB      101             0.0000000000
     13454       107  POPC      C216           41.1819245124        7.2182898501       41.2763770398  MEMB      101             0.0000000000
     13455       107  POPC      H16R           40.7983351712        7.9006328878       40.4864792980  MEMB      101             0.0000000000
     13456       107  POPC      H16S           41.9272743864        6.5491446678       40.7910883678  MEMB      101             0.0000000000
     13457       107  POPC      C217           41.9005063882        8.0278653992       42.3614304815  MEMB      101             0.0000000000
     13458       107  POPC      H17R           42.7852052706        8.5386355657       41.9166877968  MEMB      101             0.0000000000
     13459       107  POPC      H17S           42.2777459551        7.3305052314       43.1416981850  MEMB      101             0.0000000000
     13460       107  POPC      C218           41.0051674271        9.0615749255       43.0340145832  MEMB      101             0.0000000000
     13461       107  POPC      H18R           40.6334027824        9.7931565231       42.2859407156  MEMB      101             0.0000000000
     13462       107  POPC      H18S           41.5692786523        9.6067343456       43.8217028027  MEMB      101             0.0000000000
     13463       107  POPC      H18T           40.1315298979        8.5678578959       43.5086398028  MEMB      101             0.0000000000
     13464       107  POPC      C33            42.6384443831        3.2753095587       32.4092445226  MEMB      101             0.0000000000
     13465       107  POPC      H3X            43.1358424469        4.1339678844       31.9079205666  MEMB      101             0.0000000000
     13466       107  POPC      H3Y            43.1883509673        2.3530353224       32.1206452771  MEMB      101             0.0000000000
     13467       107  POPC      C34            42.7347264479        3.4260726576       33.9280968454  MEMB      101             0.0000000000
     13468       107  POPC      H4X            41.7476804298        3.1608843870       34.3720181418  MEMB      101             0.0000000000
     13469       107  POPC      H4Y            42.9508906998        4.4840537234       34.1929574834  MEMB      101             0.0000000000
     13470       107  POPC      C35            43.7850931317        2.4958571952       34.5455290203  MEMB      101             0.0000000000
     13471       107  POPC      H5X            44.8026225770        2.8506978226       34.2727580787  MEMB      101             0.0000000000
     13472       107  POPC      H5Y            43.6583265168        1.4741515896       34.1181460229  MEMB      101             0.0000000000
     13473       107  POPC      C36            43.6619182371        2.3854255874       36.0690851809  MEMB      101             0.0000000000
     13474       107  POPC      H6X            44.4710210448        1.7252605376       36.4527709464  MEMB      101             0.0000000000
     13475       107  POPC      H6Y            42.6976281963        1.8809439526       36.3000624831  MEMB      101             0.0000000000
     13476       107  POPC      C37            43.7086803064        3.7380325286       36.7986368200  MEMB      101             0.0000000000
     13477       107  POPC      H7X            42.9516444982        4.4262942356       36.3684771768  MEMB      101             0.0000000000
     13478       107  POPC      H7Y            44.7020760774        4.2148858819       36.6535868260  MEMB      101             0.0000000000
     13479       107  POPC      C38            43.4005000482        3.5952368621       38.2926591857  MEMB      101             0.0000000000
     13480       107  POPC      H8X            42.5867895635        2.8474833441       38.4176921519  MEMB      101             0.0000000000
     13481       107  POPC      H8Y            43.0255563038        4.5591532004       38.7048402156  MEMB      101             0.0000000000
     13482       107  POPC      C39            44.6233899968        3.1435347261       39.0899597485  MEMB      101             0.0000000000
     13483       107  POPC      H9X            45.2266076819        2.4410166488       38.4764184680  MEMB      101             0.0000000000
     13484       107  POPC      H9Y            44.2775365141        2.5830328908       39.9882473922  MEMB      101             0.0000000000
     13485       107  POPC      C310           45.4989478039        4.3163847329       39.5448784259  MEMB      101             0.0000000000
     13486       107  POPC      H10X           45.1555189845        5.2665646858       39.0791589837  MEMB      101             0.0000000000
     13487       107  POPC      H10Y           46.5416278060        4.1395662088       39.1970220635  MEMB      101             0.0000000000
     13488       107  POPC      C311           45.5071882048        4.4573750053       41.0711269211  MEMB      101             0.0000000000
     13489       107  POPC      H11X           46.3273005440        5.1495316869       41.3526022065  MEMB      101             0.0000000000
     13490       107  POPC      H11Y           45.7374270080        3.4685191043       41.5258811232  MEMB      101             0.0000000000
     13491       107  POPC      C312           44.1851449920        4.9886389218       41.6493920749  MEMB      101             0.0000000000
     13492       107  POPC      H12X           43.3279772059        4.3917729884       41.2715750487  MEMB      101             0.0000000000
     13493       107  POPC      H12Y           44.0519161772        6.0324693998       41.2852898767  MEMB      101             0.0000000000
     13494       107  POPC      C313           44.1801448370        4.9888951197       43.1861125375  MEMB      101             0.0000000000
     13495       107  POPC      H13X           43.8001283861        5.9567178856       43.5682712595  MEMB      101             0.0000000000
     13496       107  POPC      H13Y           45.2369519156        4.8907566907       43.5213711632  MEMB      101             0.0000000000
     13497       107  POPC      C314           43.3605544231        3.8624666511       43.8296284976  MEMB      101             0.0000000000
     13498       107  POPC      H14X           43.9192220109        3.4645065804       44.7054274093  MEMB      101             0.0000000000
     13499       107  POPC      H14Y           43.2742293500        3.0370239841       43.0894486411  MEMB      101             0.0000000000
     13500       107  POPC      C315           41.9480127294        4.2752081857       44.2888342410  MEMB      101             0.0000000000
     13501       107  POPC      H15X           41.3004409570        3.3685874232       44.3082093632  MEMB      101             0.0000000000
     13502       107  POPC      H15Y           41.5303260935        4.9586424989       43.5293093823  MEMB      101             0.0000000000
     13503       107  POPC      C316           41.8459191298        4.9640510290       45.6540905780  MEMB      101             0.0000000000
     13504       107  POPC      H16X           40.7811994334        5.0929653700       45.9425596765  MEMB      101             0.0000000000
     13505       107  POPC      H16Y           42.3140396423        5.9713482390       45.6192742264  MEMB      101             0.0000000000
     13506       107  POPC      H16Z           42.3521250031        4.3662792735       46.4401168725  MEMB      101             0.0000000000
     13507       108  POPC      N              61.3201238798       28.1562492545       27.2767036136  MEMB      102             0.0000000000
     13508       108  POPC      C12            60.0531006591       28.6889951281       26.6406657766  MEMB      102             0.0000000000
     13509       108  POPC      H12A           59.2022718032       28.3189538367       27.1931140895  MEMB      102             0.0000000000
     13510       108  POPC      H12B           59.9826213708       28.3043645631       25.6307052144  MEMB      102             0.0000000000
     13511       108  POPC      C13            61.3099277448       28.4661920907       28.7335892001  MEMB      102             0.0000000000
     13512       108  POPC      H13A           62.2395330039       28.1437325794       29.1835072187  MEMB      102             0.0000000000
     13513       108  POPC      H13B           61.2118278154       29.5391369623       28.8969369235  MEMB      102             0.0000000000
     13514       108  POPC      H13C           60.4950651634       27.9687677836       29.2316882567  MEMB      102             0.0000000000
     13515       108  POPC      C14            61.4831947648       26.6799194407       27.0415721313  MEMB      102             0.0000000000
     13516       108  POPC      H14A           62.4622875916       26.3413370602       27.3850775002  MEMB      102             0.0000000000
     13517       108  POPC      H14B           60.7225246653       26.0818902115       27.5172451649  MEMB      102             0.0000000000
     13518       108  POPC      H14C           61.5050688338       26.4146526162       25.9843251029  MEMB      102             0.0000000000
     13519       108  POPC      C15            62.5234382618       28.8110251685       26.6722130448  MEMB      102             0.0000000000
     13520       108  POPC      H15A           63.4026061039       28.6210994266       27.2774235952  MEMB      102             0.0000000000
     13521       108  POPC      H15B           62.3594704917       29.8776899363       26.5577778579  MEMB      102             0.0000000000
     13522       108  POPC      H15C           62.7400242198       28.3994661774       25.6874349441  MEMB      102             0.0000000000
     13523       108  POPC      C11            59.9072108763       30.2254978362       26.5204188917  MEMB      102             0.0000000000
     13524       108  POPC      H11A           60.2353606669       30.6706825281       27.4830122638  MEMB      102             0.0000000000
     13525       108  POPC      H11B           58.8269835705       30.4709638754       26.3703007864  MEMB      102             0.0000000000
     13526       108  POPC      P              60.7771039830       32.2151049233       25.0005730584  MEMB      102             0.0000000000
     13527       108  POPC      O13            59.4334924544       32.8464540976       24.9461567467  MEMB      102             0.0000000000
     13528       108  POPC      O14            61.5865542674       32.2846300822       23.7557460631  MEMB      102             0.0000000000
     13529       108  POPC      O12            60.6856138823       30.6907110193       25.4233803515  MEMB      102             0.0000000000
     13530       108  POPC      O11            61.6315541778       32.8611900203       26.1747054601  MEMB      102             0.0000000000
     13531       108  POPC      C1             61.0302086659       33.2610981774       27.4064898130  MEMB      102             0.0000000000
     13532       108  POPC      HA             60.1619393827       32.6348385221       27.7060657696  MEMB      102             0.0000000000
     13533       108  POPC      HB             60.6615025780       34.3087711328       27.3005262223  MEMB      102             0.0000000000
     13534       108  POPC      C2             62.0630861676       33.2266078831       28.5632603321  MEMB      102             0.0000000000
     13535       108  POPC      HS             62.7132604356       34.1072823331       28.3314077974  MEMB      102             0.0000000000
     13536       108  POPC      O21            62.8054792553       31.9902247612       28.6101362337  MEMB      102             0.0000000000
     13537       108  POPC      C21            64.0425818007       32.1759748173       29.0745612904  MEMB      102             0.0000000000
     13538       108  POPC      O22            64.5802014459       33.2587662562       29.1964857169  MEMB      102             0.0000000000
     13539       108  POPC      C22            64.7015268455       30.8631778989       29.4333041398  MEMB      102             0.0000000000
     13540       108  POPC      H2R            65.7137586176       31.0636714944       29.8395952468  MEMB      102             0.0000000000
     13541       108  POPC      H2S            64.8024031925       30.2723688910       28.4997938249  MEMB      102             0.0000000000
     13542       108  POPC      C3             61.4138703391       33.4497557694       29.9532455171  MEMB      102             0.0000000000
     13543       108  POPC      HX             60.7041725711       34.2961547298       29.8180934558  MEMB      102             0.0000000000
     13544       108  POPC      HY             62.2204008372       33.7691602292       30.6535068339  MEMB      102             0.0000000000
     13545       108  POPC      O31            60.7386707757       32.2630368638       30.4638419622  MEMB      102             0.0000000000
     13546       108  POPC      C31            60.0546199610       32.5764357863       31.5790644646  MEMB      102             0.0000000000
     13547       108  POPC      O32            59.9929002104       33.7086673815       32.0252836449  MEMB      102             0.0000000000
     13548       108  POPC      C32            59.3626711066       31.3795389151       32.2413389306  MEMB      102             0.0000000000
     13549       108  POPC      H2X            58.3286972417       31.7289145284       32.4467731721  MEMB      102             0.0000000000
     13550       108  POPC      H2Y            59.8368571521       31.2164235393       33.2280528017  MEMB      102             0.0000000000
     13551       108  POPC      C23            63.8431692752       30.1103661071       30.4514942553  MEMB      102             0.0000000000
     13552       108  POPC      H3R            64.1995647725       29.0573295448       30.5018030959  MEMB      102             0.0000000000
     13553       108  POPC      H3S            62.7831603568       30.0898499690       30.1225442542  MEMB      102             0.0000000000
     13554       108  POPC      C24            63.8763282531       30.7072993630       31.8578981549  MEMB      102             0.0000000000
     13555       108  POPC      H4R            63.7621942851       31.8139258970       31.8562073611  MEMB      102             0.0000000000
     13556       108  POPC      H4S            64.8645117051       30.4666589561       32.3014496520  MEMB      102             0.0000000000
     13557       108  POPC      C25            62.7595824064       30.0715723319       32.6879909382  MEMB      102             0.0000000000
     13558       108  POPC      H5R            62.5968279552       29.0376247630       32.3003777977  MEMB      102             0.0000000000
     13559       108  POPC      H5S            61.8195345923       30.6308046883       32.5397673129  MEMB      102             0.0000000000
     13560       108  POPC      C26            63.0748610062       29.9405446981       34.1751464668  MEMB      102             0.0000000000
     13561       108  POPC      H6R            64.1334123855       29.6201117507       34.2790780522  MEMB      102             0.0000000000
     13562       108  POPC      H6S            62.4408407150       29.1269177626       34.5959896263  MEMB      102             0.0000000000
     13563       108  POPC      C27            62.7997726284       31.2194088221       34.9740319410  MEMB      102             0.0000000000
     13564       108  POPC      H7R            61.7703499713       31.5659427325       34.7302692649  MEMB      102             0.0000000000
     13565       108  POPC      H7S            63.5035041455       32.0177752303       34.6501409605  MEMB      102             0.0000000000
     13566       108  POPC      C28            62.8872090492       31.0011159108       36.4957163200  MEMB      102             0.0000000000
     13567       108  POPC      H8R            62.1310010787       30.2346278473       36.7788348857  MEMB      102             0.0000000000
     13568       108  POPC      H8S            62.6080695128       31.9516417992       37.0017301534  MEMB      102             0.0000000000
     13569       108  POPC      C29            64.2662617709       30.5470751219       36.8959218086  MEMB      102             0.0000000000
     13570       108  POPC      H91            64.9444518771       30.3571669564       36.0539692904  MEMB      102             0.0000000000
     13571       108  POPC      C210           64.7417265650       30.3972865266       38.1409399523  MEMB      102             0.0000000000
     13572       108  POPC      H101           65.7839709153       30.0636653756       38.2706822593  MEMB      102             0.0000000000
     13573       108  POPC      C211           63.9939017977       30.6533642231       39.4205267010  MEMB      102             0.0000000000
     13574       108  POPC      H11R           64.5710828098       30.2097129340       40.2628519117  MEMB      102             0.0000000000
     13575       108  POPC      H11S           63.0009577859       30.1489295528       39.4195845583  MEMB      102             0.0000000000
     13576       108  POPC      C212           63.7894621307       32.1499671506       39.7238861015  MEMB      102             0.0000000000
     13577       108  POPC      H12R           62.8648448965       32.5059875183       39.2172937775  MEMB      102             0.0000000000
     13578       108  POPC      H12S           64.6416951881       32.7545471537       39.3356610686  MEMB      102             0.0000000000
     13579       108  POPC      C213           63.6927600383       32.4108462620       41.2333256143  MEMB      102             0.0000000000
     13580       108  POPC      H13R           64.6948198402       32.2087284261       41.6734440100  MEMB      102             0.0000000000
     13581       108  POPC      H13S           62.9783742197       31.6881502727       41.6876795602  MEMB      102             0.0000000000
     13582       108  POPC      C214           63.2462495970       33.8411497465       41.5688921628  MEMB      102             0.0000000000
     13583       108  POPC      H14R           62.1781316756       33.8174420175       41.8791495230  MEMB      102             0.0000000000
     13584       108  POPC      H14S           63.2998124199       34.4620202664       40.6450549726  MEMB      102             0.0000000000
     13585       108  POPC      C215           64.0920906261       34.5389434823       42.6480468120  MEMB      102             0.0000000000
     13586       108  POPC      H15R           63.6213089062       35.5214701783       42.8808170610  MEMB      102             0.0000000000
     13587       108  POPC      H15S           65.0991156002       34.7498598678       42.2209218800  MEMB      102             0.0000000000
     13588       108  POPC      C216           64.2780339606       33.7583760324       43.9620335142  MEMB      102             0.0000000000
     13589       108  POPC      H16R           64.8423056368       34.4052694313       44.6716925009  MEMB      102             0.0000000000
     13590       108  POPC      H16S           64.9001092949       32.8557278910       43.7776535890  MEMB      102             0.0000000000
     13591       108  POPC      C217           62.9685501738       33.3217321065       44.6319275418  MEMB      102             0.0000000000
     13592       108  POPC      H17R           62.4324728926       32.6195944863       43.9532484324  MEMB      102             0.0000000000
     13593       108  POPC      H17S           62.3240757804       34.2157283532       44.7699732654  MEMB      102             0.0000000000
     13594       108  POPC      C218           63.1834383645       32.6394196254       45.9859374668  MEMB      102             0.0000000000
     13595       108  POPC      H18R           63.8730199728       31.7769734393       45.8717958701  MEMB      102             0.0000000000
     13596       108  POPC      H18S           63.6359192902       33.3458792889       46.7143560769  MEMB      102             0.0000000000
     13597       108  POPC      H18T           62.2219292046       32.2691717421       46.4009072868  MEMB      102             0.0000000000
     13598       108  POPC      C33            59.2720817566       30.0516131800       31.4421319362  MEMB      102             0.0000000000
     13599       108  POPC      H3X            60.2510074250       29.5334015663       31.4036859906  MEMB      102             0.0000000000
     13600       108  POPC      H3Y            58.9781571072       30.3028473829       30.3941984647  MEMB      102             0.0000000000
     13601       108  POPC      C34            58.1862408403       29.1022205167       31.9960141026  MEMB      102             0.0000000000
     13602       108  POPC      H4X            57.7363559641       28.5518090279       31.1360360459  MEMB      102             0.0000000000
     13603       108  POPC      H4Y            57.3649779041       29.7021981435       32.4459476925  MEMB      102             0.0000000000
     13604       108  POPC      C35            58.6672535151       28.0347922792       33.0009433547  MEMB      102             0.0000000000
     13605       108  POPC      H5X            59.4025557973       27.3734195026       32.4920154453  MEMB      102             0.0000000000
     13606       108  POPC      H5Y            57.7899866504       27.4013794230       33.2739974750  MEMB      102             0.0000000000
     13607       108  POPC      C36            59.2916978844       28.5561637599       34.3084604427  MEMB      102             0.0000000000
     13608       108  POPC      H6X            60.1991548005       29.1538668438       34.0774475788  MEMB      102             0.0000000000
     13609       108  POPC      H6Y            59.6117352430       27.6758529881       34.9138592964  MEMB      102             0.0000000000
     13610       108  POPC      C37            58.3364560719       29.4036271239       35.1606922278  MEMB      102             0.0000000000
     13611       108  POPC      H7X            57.3870137048       28.8384107388       35.3050382613  MEMB      102             0.0000000000
     13612       108  POPC      H7Y            58.0866075735       30.3321770071       34.6055024316  MEMB      102             0.0000000000
     13613       108  POPC      C38            58.9127117789       29.7802864478       36.5346497507  MEMB      102             0.0000000000
     13614       108  POPC      H8X            59.9103449139       29.3042749751       36.6659072461  MEMB      102             0.0000000000
     13615       108  POPC      H8Y            58.2439763197       29.3648269137       37.3210562766  MEMB      102             0.0000000000
     13616       108  POPC      C39            59.0640899494       31.2968257291       36.7431063272  MEMB      102             0.0000000000
     13617       108  POPC      H9X            58.0907579571       31.8023243411       36.5593446994  MEMB      102             0.0000000000
     13618       108  POPC      H9Y            59.7912530393       31.6793008046       35.9911586496  MEMB      102             0.0000000000
     13619       108  POPC      C310           59.5626888470       31.6629808184       38.1514191721  MEMB      102             0.0000000000
     13620       108  POPC      H10X           59.8848810800       32.7289069280       38.1529268429  MEMB      102             0.0000000000
     13621       108  POPC      H10Y           60.4555501695       31.0447060316       38.3927603928  MEMB      102             0.0000000000
     13622       108  POPC      C311           58.4908395300       31.4839055367       39.2381247263  MEMB      102             0.0000000000
     13623       108  POPC      H11X           58.1426819578       30.4289257887       39.2642160736  MEMB      102             0.0000000000
     13624       108  POPC      H11Y           57.6143337745       32.1163656829       38.9647791446  MEMB      102             0.0000000000
     13625       108  POPC      C312           58.9667064136       31.8974219052       40.6409438260  MEMB      102             0.0000000000
     13626       108  POPC      H12X           58.0770068464       31.9449390271       41.3074902636  MEMB      102             0.0000000000
     13627       108  POPC      H12Y           59.4069475397       32.9186758036       40.5861761476  MEMB      102             0.0000000000
     13628       108  POPC      C313           59.9775736688       30.9413208843       41.2894858727  MEMB      102             0.0000000000
     13629       108  POPC      H13X           60.4430490220       31.4605685334       42.1595439732  MEMB      102             0.0000000000
     13630       108  POPC      H13Y           60.7947305562       30.7035856028       40.5747246304  MEMB      102             0.0000000000
     13631       108  POPC      C314           59.3316478742       29.6480343472       41.8025422873  MEMB      102             0.0000000000
     13632       108  POPC      H14X           58.8175283565       29.1254557055       40.9654669973  MEMB      102             0.0000000000
     13633       108  POPC      H14Y           58.5602564408       29.8998263937       42.5662115028  MEMB      102             0.0000000000
     13634       108  POPC      C315           60.3574143524       28.6962048045       42.4231100706  MEMB      102             0.0000000000
     13635       108  POPC      H15X           60.8837781970       29.2241704187       43.2519943374  MEMB      102             0.0000000000
     13636       108  POPC      H15Y           61.1190285857       28.4474679097       41.6493331516  MEMB      102             0.0000000000
     13637       108  POPC      C316           59.7382329327       27.4034059701       42.9524669467  MEMB      102             0.0000000000
     13638       108  POPC      H16X           60.5178589257       26.7497692467       43.4001374026  MEMB      102             0.0000000000
     13639       108  POPC      H16Y           59.2390513004       26.8459488833       42.1313575725  MEMB      102             0.0000000000
     13640       108  POPC      H16Z           58.9799057531       27.6289855095       43.7324720102  MEMB      102             0.0000000000
     13641       109  POPS      N              21.3493062043       59.1246112793       24.6633986135  MEMB      103             0.0000000000
     13642       109  POPS      HN1            21.1077484036       60.1353750727       24.6291155399  MEMB      103             0.0000000000
     13643       109  POPS      HN2            21.6391745708       58.8973836397       25.6445082935  MEMB      103             0.0000000000
     13644       109  POPS      HN3            22.0500918486       58.8603060034       23.9490471912  MEMB      103             0.0000000000
     13645       109  POPS      C12            20.0593096981       58.4025038372       24.4629864990  MEMB      103             0.0000000000
     13646       109  POPS      H12A           20.2864940991       57.4307141363       24.0525364312  MEMB      103             0.0000000000
     13647       109  POPS      C13            19.0907971946       59.1368427623       23.5198169023  MEMB      103             0.0000000000
     13648       109  POPS      O13A           19.4625706152       60.1594893915       22.8690833218  MEMB      103             0.0000000000
     13649       109  POPS      O13B           17.9115638303       58.6977995648       23.4944595061  MEMB      103             0.0000000000
     13650       109  POPS      C11            19.3379770800       58.2116720444       25.8240507044  MEMB      103             0.0000000000
     13651       109  POPS      H11A           18.7595452383       57.2611246502       25.8135604732  MEMB      103             0.0000000000
     13652       109  POPS      H11B           18.5705892101       59.0228705000       25.9370947713  MEMB      103             0.0000000000
     13653       109  POPS      P              20.2273978851       59.3684074450       27.9424024117  MEMB      103             0.0000000000
     13654       109  POPS      O13            20.5373372449       60.5864017134       27.1579729727  MEMB      103             0.0000000000
     13655       109  POPS      O14            21.1324610314       59.0129068094       29.0388459794  MEMB      103             0.0000000000
     13656       109  POPS      O12            20.2848111578       58.1732602726       26.8995028820  MEMB      103             0.0000000000
     13657       109  POPS      O11            18.7187936461       59.2929406944       28.3947916826  MEMB      103             0.0000000000
     13658       109  POPS      C1             18.2720411398       58.1526914983       29.1445027819  MEMB      103             0.0000000000
     13659       109  POPS      HA             19.0896376418       57.4679678828       29.4850510361  MEMB      103             0.0000000000
     13660       109  POPS      HB             17.5686283066       57.5607972932       28.5196057024  MEMB      103             0.0000000000
     13661       109  POPS      C2             17.5326160903       58.6416467257       30.4026513132  MEMB      103             0.0000000000
     13662       109  POPS      HS             16.7575436835       59.3532953909       30.0224623859  MEMB      103             0.0000000000
     13663       109  POPS      O21            18.4825508788       59.2348126675       31.3152634582  MEMB      103             0.0000000000
     13664       109  POPS      C21            18.1723897587       60.4571909044       31.6868580316  MEMB      103             0.0000000000
     13665       109  POPS      O22            17.2730090362       61.1379098743       31.2277311292  MEMB      103             0.0000000000
     13666       109  POPS      C22            18.9671293678       60.8394293109       32.9352165463  MEMB      103             0.0000000000
     13667       109  POPS      H2R            19.6440916835       61.6798696027       32.6899821307  MEMB      103             0.0000000000
     13668       109  POPS      H2S            19.5626427124       59.9696371368       33.2678840389  MEMB      103             0.0000000000
     13669       109  POPS      C3             16.7709978605       57.5026163642       31.1304616838  MEMB      103             0.0000000000
     13670       109  POPS      HX             16.1357560998       56.9799194742       30.3816469533  MEMB      103             0.0000000000
     13671       109  POPS      HY             16.0749488381       57.9633583743       31.8718402942  MEMB      103             0.0000000000
     13672       109  POPS      O31            17.6687255106       56.5370860492       31.7194954747  MEMB      103             0.0000000000
     13673       109  POPS      C31            17.9930475322       56.7932235061       32.9833961177  MEMB      103             0.0000000000
     13674       109  POPS      O32            17.5540349321       57.6983727603       33.6717232980  MEMB      103             0.0000000000
     13675       109  POPS      C32            18.8729635495       55.6700780710       33.5251290111  MEMB      103             0.0000000000
     13676       109  POPS      H2X            18.6254721718       54.7239680090       33.0223393675  MEMB      103             0.0000000000
     13677       109  POPS      H2Y            18.6548813075       55.5586994876       34.6061282398  MEMB      103             0.0000000000
     13678       109  POPS      C23            17.9563094373       61.2349588576       34.0296563554  MEMB      103             0.0000000000
     13679       109  POPS      H3R            17.1468023194       60.4710674567       34.0330850998  MEMB      103             0.0000000000
     13680       109  POPS      H3S            17.5087265077       62.2234978745       33.7712559823  MEMB      103             0.0000000000
     13681       109  POPS      C24            18.4968370533       61.2887168287       35.4600104103  MEMB      103             0.0000000000
     13682       109  POPS      H4R            17.8667669246       62.0106114185       36.0306058367  MEMB      103             0.0000000000
     13683       109  POPS      H4S            19.5386849599       61.6651810591       35.4554783836  MEMB      103             0.0000000000
     13684       109  POPS      C25            18.4168297739       59.9377515059       36.1840368275  MEMB      103             0.0000000000
     13685       109  POPS      H5R            19.2618264553       59.3046432077       35.8408505047  MEMB      103             0.0000000000
     13686       109  POPS      H5S            17.4774688841       59.4125196131       35.8940469763  MEMB      103             0.0000000000
     13687       109  POPS      C26            18.4219450239       60.0514456929       37.7169072761  MEMB      103             0.0000000000
     13688       109  POPS      H6R            18.5424389626       59.0315549707       38.1442708619  MEMB      103             0.0000000000
     13689       109  POPS      H6S            17.4310246949       60.4352583588       38.0481553359  MEMB      103             0.0000000000
     13690       109  POPS      C27            19.5117479104       60.9624478593       38.3026989006  MEMB      103             0.0000000000
     13691       109  POPS      H7R            19.4035775331       60.9251858825       39.4127544414  MEMB      103             0.0000000000
     13692       109  POPS      H7S            19.3369683951       62.0151847370       37.9902143818  MEMB      103             0.0000000000
     13693       109  POPS      C28            20.9343631063       60.5282278014       37.9138854927  MEMB      103             0.0000000000
     13694       109  POPS      H8R            21.1188876503       60.7454916264       36.8406160080  MEMB      103             0.0000000000
     13695       109  POPS      H8S            20.9994640578       59.4210090809       38.0212267905  MEMB      103             0.0000000000
     13696       109  POPS      C29            21.9432560268       61.2375365458       38.7771840838  MEMB      103             0.0000000000
     13697       109  POPS      H91            22.0904234646       62.3088607720       38.5679525958  MEMB      103             0.0000000000
     13698       109  POPS      C210           22.6447391854       60.6591880883       39.7624905500  MEMB      103             0.0000000000
     13699       109  POPS      H101           23.3573576204       61.2604182331       40.3412548808  MEMB      103             0.0000000000
     13700       109  POPS      C211           22.5479202442       59.2157595618       40.1716353964  MEMB      103             0.0000000000
     13701       109  POPS      H11R           22.9753890896       58.5797244649       39.3646293868  MEMB      103             0.0000000000
     13702       109  POPS      H11S           21.4874846247       58.9100719815       40.3080408923  MEMB      103             0.0000000000
     13703       109  POPS      C212           23.3224503814       58.9173627597       41.4667557027  MEMB      103             0.0000000000
     13704       109  POPS      H12R           24.3566227656       59.3213577395       41.3735780719  MEMB      103             0.0000000000
     13705       109  POPS      H12S           23.4047878171       57.8159741953       41.5996344595  MEMB      103             0.0000000000
     13706       109  POPS      C213           22.7021898766       59.5255928940       42.7216092274  MEMB      103             0.0000000000
     13707       109  POPS      H13R           22.0995025381       60.4168011632       42.4506339097  MEMB      103             0.0000000000
     13708       109  POPS      H13S           23.5319804053       59.8676515836       43.3837856920  MEMB      103             0.0000000000
     13709       109  POPS      C214           21.8442385517       58.5462004275       43.5268563510  MEMB      103             0.0000000000
     13710       109  POPS      H14R           22.4565222143       57.6494191460       43.7709565937  MEMB      103             0.0000000000
     13711       109  POPS      H14S           20.9634002811       58.2147482057       42.9344519382  MEMB      103             0.0000000000
     13712       109  POPS      C215           21.3905049733       59.2116394738       44.8261932471  MEMB      103             0.0000000000
     13713       109  POPS      H15R           20.5440173173       59.8975132950       44.6019062394  MEMB      103             0.0000000000
     13714       109  POPS      H15S           22.2360469993       59.8326993154       45.1974640187  MEMB      103             0.0000000000
     13715       109  POPS      C216           20.9828349294       58.2328884238       45.9295989438  MEMB      103             0.0000000000
     13716       109  POPS      H16R           21.7805472362       57.4753241874       46.0768403984  MEMB      103             0.0000000000
     13717       109  POPS      H16S           20.0648452134       57.6972552286       45.6012089376  MEMB      103             0.0000000000
     13718       109  POPS      C217           20.7220044487       58.9471782322       47.2630174856  MEMB      103             0.0000000000
     13719       109  POPS      H17R           20.2743260654       58.2345328480       47.9857945571  MEMB      103             0.0000000000
     13720       109  POPS      H17S           19.9625476373       59.7380034227       47.0804818623  MEMB      103             0.0000000000
     13721       109  POPS      C218           21.9696119489       59.5521593669       47.9192297311  MEMB      103             0.0000000000
     13722       109  POPS      H18R           21.6898892920       60.0816482597       48.8550618103  MEMB      103             0.0000000000
     13723       109  POPS      H18S           22.4669144714       60.2835333560       47.2501545274  MEMB      103             0.0000000000
     13724       109  POPS      H18T           22.7003401026       58.7539573229       48.1712396164  MEMB      103             0.0000000000
     13725       109  POPS      C33            20.3647507227       55.8888432474       33.2730737226  MEMB      103             0.0000000000
     13726       109  POPS      H3X            20.5600034704       55.9765620501       32.1769861625  MEMB      103             0.0000000000
     13727       109  POPS      H3Y            20.9178859147       54.9877406232       33.6267324645  MEMB      103             0.0000000000
     13728       109  POPS      C34            20.9021462722       57.1296653149       33.9770998867  MEMB      103             0.0000000000
     13729       109  POPS      H4X            20.3755554136       58.0365327367       33.6111148280  MEMB      103             0.0000000000
     13730       109  POPS      H4Y            21.9466197782       57.1921844109       33.6348471389  MEMB      103             0.0000000000
     13731       109  POPS      C35            20.8757191014       57.1096328616       35.5133425355  MEMB      103             0.0000000000
     13732       109  POPS      H5X            19.8244244938       57.0839608842       35.8757910505  MEMB      103             0.0000000000
     13733       109  POPS      H5Y            21.3308294429       58.0577122176       35.8804455257  MEMB      103             0.0000000000
     13734       109  POPS      C36            21.6537632163       55.9361552844       36.1165579230  MEMB      103             0.0000000000
     13735       109  POPS      H6X            22.6356382010       55.8552909041       35.6032842689  MEMB      103             0.0000000000
     13736       109  POPS      H6Y            21.0939347899       55.0019578310       35.9029026830  MEMB      103             0.0000000000
     13737       109  POPS      C37            21.8990424336       56.0644802680       37.6299333772  MEMB      103             0.0000000000
     13738       109  POPS      H7X            22.4589273592       57.0023612370       37.8349129640  MEMB      103             0.0000000000
     13739       109  POPS      H7Y            22.5437409212       55.2180326381       37.9565946703  MEMB      103             0.0000000000
     13740       109  POPS      C38            20.6130668189       56.0671718887       38.4690807404  MEMB      103             0.0000000000
     13741       109  POPS      H8X            19.9452286682       55.2410904314       38.1384867945  MEMB      103             0.0000000000
     13742       109  POPS      H8Y            20.0831166859       57.0262173790       38.2793151658  MEMB      103             0.0000000000
     13743       109  POPS      C39            20.8896708157       55.9102707495       39.9712336818  MEMB      103             0.0000000000
     13744       109  POPS      H9X            21.5969385171       56.7012711230       40.2963360630  MEMB      103             0.0000000000
     13745       109  POPS      H9Y            21.3956973276       54.9328205554       40.1409332713  MEMB      103             0.0000000000
     13746       109  POPS      C310           19.6289239285       55.9727324575       40.8484846335  MEMB      103             0.0000000000
     13747       109  POPS      H10X           19.9300629054       55.8411896302       41.9124703573  MEMB      103             0.0000000000
     13748       109  POPS      H10Y           18.9642233424       55.1214221431       40.5782980955  MEMB      103             0.0000000000
     13749       109  POPS      C311           18.8329347682       57.2831551575       40.7276345433  MEMB      103             0.0000000000
     13750       109  POPS      H11X           18.4996976177       57.4167375958       39.6762324187  MEMB      103             0.0000000000
     13751       109  POPS      H11Y           19.4822434018       58.1469049872       40.9898513152  MEMB      103             0.0000000000
     13752       109  POPS      C312           17.5901124277       57.2937095092       41.6267562072  MEMB      103             0.0000000000
     13753       109  POPS      H12X           17.8968301641       57.1882342040       42.6879305334  MEMB      103             0.0000000000
     13754       109  POPS      H12Y           16.9846279330       56.3965032985       41.3701236552  MEMB      103             0.0000000000
     13755       109  POPS      C313           16.7093084080       58.5389344784       41.4413314211  MEMB      103             0.0000000000
     13756       109  POPS      H13X           15.6427649775       58.2453754062       41.5385273772  MEMB      103             0.0000000000
     13757       109  POPS      H13Y           16.8345829098       58.9253278056       40.4052531716  MEMB      103             0.0000000000
     13758       109  POPS      C314           16.9792932551       59.6713886310       42.4458965017  MEMB      103             0.0000000000
     13759       109  POPS      H14X           16.2869412656       60.5093972302       42.2009544535  MEMB      103             0.0000000000
     13760       109  POPS      H14Y           18.0180439306       60.0373045049       42.2984196298  MEMB      103             0.0000000000
     13761       109  POPS      C315           16.7826959697       59.3061776923       43.9308419714  MEMB      103             0.0000000000
     13762       109  POPS      H15X           16.8124522369       60.2472610051       44.5276749429  MEMB      103             0.0000000000
     13763       109  POPS      H15Y           17.6471030547       58.6910552957       44.2685569302  MEMB      103             0.0000000000
     13764       109  POPS      C316           15.4841456145       58.5570785917       44.2540793185  MEMB      103             0.0000000000
     13765       109  POPS      H16X           15.3446311245       58.4676137259       45.3514741227  MEMB      103             0.0000000000
     13766       109  POPS      H16Y           15.5046834165       57.5316797660       43.8266868438  MEMB      103             0.0000000000
     13767       109  POPS      H16Z           14.6089564025       59.0947475989       43.8355945786  MEMB      103             0.0000000000
     13768       110  POPC      N              48.9776366524       10.5227980039       25.4721095451  MEMB      104             0.0000000000
     13769       110  POPC      C12            49.5508706038        9.3112633723       24.7318247021  MEMB      104             0.0000000000
     13770       110  POPC      H12A           50.4941228820        9.6031842366       24.2655118518  MEMB      104             0.0000000000
     13771       110  POPC      H12B           48.8989166838        9.0583826854       23.9007373529  MEMB      104             0.0000000000
     13772       110  POPC      C13            50.0394779272       10.9780084878       26.4164535749  MEMB      104             0.0000000000
     13773       110  POPC      H13A           50.9262948534       11.2734096752       25.8644820316  MEMB      104             0.0000000000
     13774       110  POPC      H13B           49.6959613016       11.7721217064       27.0511906357  MEMB      104             0.0000000000
     13775       110  POPC      H13C           50.3574844021       10.1155392759       27.0109546446  MEMB      104             0.0000000000
     13776       110  POPC      C14            48.6254406577       11.5969712980       24.5029697010  MEMB      104             0.0000000000
     13777       110  POPC      H14A           48.0531251764       12.3880462921       24.9800383838  MEMB      104             0.0000000000
     13778       110  POPC      H14B           49.4967824636       12.0343229187       24.0329957299  MEMB      104             0.0000000000
     13779       110  POPC      H14C           47.9952140622       11.2072836677       23.7049339571  MEMB      104             0.0000000000
     13780       110  POPC      C15            47.7251079597       10.1523969069       26.2132754234  MEMB      104             0.0000000000
     13781       110  POPC      H15A           46.9588145271        9.8439324717       25.5006951988  MEMB      104             0.0000000000
     13782       110  POPC      H15B           47.3032060894       10.9728155828       26.7835850093  MEMB      104             0.0000000000
     13783       110  POPC      H15C           47.9347933332        9.3316066722       26.8808159511  MEMB      104             0.0000000000
     13784       110  POPC      C11            49.8664931660        8.0453950945       25.5828503314  MEMB      104             0.0000000000
     13785       110  POPC      H11A           50.1025864568        7.2159935461       24.8684635315  MEMB      104             0.0000000000
     13786       110  POPC      H11B           48.9693356084        7.7166496677       26.1477427857  MEMB      104             0.0000000000
     13787       110  POPC      P              52.1921722836        7.3297570480       26.5560393618  MEMB      104             0.0000000000
     13788       110  POPC      O13            52.9600972984        7.5224010506       25.3120190734  MEMB      104             0.0000000000
     13789       110  POPC      O14            51.7029804721        5.9475310940       26.8373950363  MEMB      104             0.0000000000
     13790       110  POPC      O12            50.9260304787        8.2949234388       26.5178553293  MEMB      104             0.0000000000
     13791       110  POPC      O11            53.0309984897        7.8541558900       27.7976872529  MEMB      104             0.0000000000
     13792       110  POPC      C1             52.5015037778        8.7387762752       28.7844642050  MEMB      104             0.0000000000
     13793       110  POPC      HA             51.3884530524        8.6829495135       28.8493725967  MEMB      104             0.0000000000
     13794       110  POPC      HB             52.7804923480        9.7858196787       28.5316961064  MEMB      104             0.0000000000
     13795       110  POPC      C2             53.0386099840        8.4177870538       30.2100610050  MEMB      104             0.0000000000
     13796       110  POPC      HS             54.1124839726        8.7109770655       30.2647098600  MEMB      104             0.0000000000
     13797       110  POPC      O21            52.8566764512        7.0213918846       30.4919671045  MEMB      104             0.0000000000
     13798       110  POPC      C21            53.8215795620        6.2023854257       30.1355266961  MEMB      104             0.0000000000
     13799       110  POPC      O22            54.8910439877        6.4854385002       29.6250971805  MEMB      104             0.0000000000
     13800       110  POPC      C22            53.4825334948        4.7687082810       30.5782834953  MEMB      104             0.0000000000
     13801       110  POPC      H2R            54.4543526477        4.3121548358       30.8648175118  MEMB      104             0.0000000000
     13802       110  POPC      H2S            53.0824234545        4.2281241198       29.6993893426  MEMB      104             0.0000000000
     13803       110  POPC      C3             52.2598173946        9.2515153928       31.2775099074  MEMB      104             0.0000000000
     13804       110  POPC      HX             51.1898205279        8.9594689793       31.1847710223  MEMB      104             0.0000000000
     13805       110  POPC      HY             52.3272711736       10.3354557392       31.0234154513  MEMB      104             0.0000000000
     13806       110  POPC      O31            52.6660746481        8.9741278020       32.6353737213  MEMB      104             0.0000000000
     13807       110  POPC      C31            53.6176905665        9.7538049562       33.1266715223  MEMB      104             0.0000000000
     13808       110  POPC      O32            54.1400591995       10.6883813412       32.5518901398  MEMB      104             0.0000000000
     13809       110  POPC      C32            53.9037078130        9.3262610529       34.5619184470  MEMB      104             0.0000000000
     13810       110  POPC      H2X            54.1602958989        8.2466588630       34.5540828796  MEMB      104             0.0000000000
     13811       110  POPC      H2Y            52.9698545652        9.4688823492       35.1451075835  MEMB      104             0.0000000000
     13812       110  POPC      C23            52.5222504728        4.6615874933       31.7872341020  MEMB      104             0.0000000000
     13813       110  POPC      H3R            51.5006528967        4.3999479043       31.4338757718  MEMB      104             0.0000000000
     13814       110  POPC      H3S            52.4563642801        5.6448534446       32.3090749637  MEMB      104             0.0000000000
     13815       110  POPC      C24            52.9896381546        3.6378168978       32.8340131275  MEMB      104             0.0000000000
     13816       110  POPC      H4R            54.0014222193        3.9335670752       33.1945335099  MEMB      104             0.0000000000
     13817       110  POPC      H4S            53.0818790143        2.6317443631       32.3663185894  MEMB      104             0.0000000000
     13818       110  POPC      C25            52.0504982227        3.5334768012       34.0500272197  MEMB      104             0.0000000000
     13819       110  POPC      H5R            52.5230498990        2.8645470905       34.8036870994  MEMB      104             0.0000000000
     13820       110  POPC      H5S            51.0985001707        3.0503628621       33.7325055555  MEMB      104             0.0000000000
     13821       110  POPC      C26            51.7016573695        4.8782794965       34.7175735400  MEMB      104             0.0000000000
     13822       110  POPC      H6R            51.0271638774        4.6832949836       35.5806954453  MEMB      104             0.0000000000
     13823       110  POPC      H6S            51.1254870224        5.5044472391       34.0015968118  MEMB      104             0.0000000000
     13824       110  POPC      C27            52.9098290752        5.6818537456       35.2271163775  MEMB      104             0.0000000000
     13825       110  POPC      H7R            52.5241941119        6.6471221961       35.6310904002  MEMB      104             0.0000000000
     13826       110  POPC      H7S            53.5899687417        5.9282623394       34.3815091883  MEMB      104             0.0000000000
     13827       110  POPC      C28            53.6912934844        4.9501347537       36.3305563621  MEMB      104             0.0000000000
     13828       110  POPC      H8R            54.1687372733        4.0453060226       35.8962977715  MEMB      104             0.0000000000
     13829       110  POPC      H8S            52.9639198915        4.5807630546       37.0874672005  MEMB      104             0.0000000000
     13830       110  POPC      C29            54.7377493911        5.8320070486       36.9624919540  MEMB      104             0.0000000000
     13831       110  POPC      H91            55.7069610434        5.8589697070       36.4405248524  MEMB      104             0.0000000000
     13832       110  POPC      C210           54.5809226017        6.5534593731       38.0867967585  MEMB      104             0.0000000000
     13833       110  POPC      H101           55.4336493007        7.1363241626       38.4692764694  MEMB      104             0.0000000000
     13834       110  POPC      C211           53.3350421374        6.6273996360       38.9319585009  MEMB      104             0.0000000000
     13835       110  POPC      H11R           53.4539316446        6.0323765057       39.8645323097  MEMB      104             0.0000000000
     13836       110  POPC      H11S           52.4597750228        6.2111902216       38.3896568623  MEMB      104             0.0000000000
     13837       110  POPC      C212           53.0169906957        8.0788343321       39.3308700293  MEMB      104             0.0000000000
     13838       110  POPC      H12R           53.0048560131        8.7234054146       38.4239502439  MEMB      104             0.0000000000
     13839       110  POPC      H12S           53.8139913353        8.4552525127       40.0115469289  MEMB      104             0.0000000000
     13840       110  POPC      C213           51.6563706305        8.2307134043       40.0274143242  MEMB      104             0.0000000000
     13841       110  POPC      H13R           51.5259603785        9.2967025781       40.3139445406  MEMB      104             0.0000000000
     13842       110  POPC      H13S           51.6598128019        7.6267819438       40.9594112035  MEMB      104             0.0000000000
     13843       110  POPC      C214           50.4802232103        7.8312935454       39.1250822192  MEMB      104             0.0000000000
     13844       110  POPC      H14R           50.4167870755        6.7244408305       39.0392991639  MEMB      104             0.0000000000
     13845       110  POPC      H14S           50.6976839071        8.2289075979       38.1065237378  MEMB      104             0.0000000000
     13846       110  POPC      C215           49.1202003801        8.3980751515       39.5608418467  MEMB      104             0.0000000000
     13847       110  POPC      H15R           48.4788284593        8.4343842008       38.6472398721  MEMB      104             0.0000000000
     13848       110  POPC      H15S           49.2204450437        9.4402546889       39.9303136459  MEMB      104             0.0000000000
     13849       110  POPC      C216           48.3846186913        7.5171642257       40.5781015002  MEMB      104             0.0000000000
     13850       110  POPC      H16R           48.5072528012        6.4487430292       40.2902083796  MEMB      104             0.0000000000
     13851       110  POPC      H16S           47.2947491390        7.7471355941       40.5207628302  MEMB      104             0.0000000000
     13852       110  POPC      C217           48.8220857563        7.7115251117       42.0327289411  MEMB      104             0.0000000000
     13853       110  POPC      H17R           48.5211031726        8.7308979735       42.3682100823  MEMB      104             0.0000000000
     13854       110  POPC      H17S           49.9264429109        7.6447497398       42.1249765655  MEMB      104             0.0000000000
     13855       110  POPC      C218           48.1929395631        6.6574208758       42.9368250337  MEMB      104             0.0000000000
     13856       110  POPC      H18R           48.2640081430        6.9370951767       44.0060079906  MEMB      104             0.0000000000
     13857       110  POPC      H18S           48.6805827598        5.6699548477       42.7942028610  MEMB      104             0.0000000000
     13858       110  POPC      H18T           47.1225914112        6.5447665240       42.6775254370  MEMB      104             0.0000000000
     13859       110  POPC      C33            55.0517027160       10.1313061849       35.2070591423  MEMB      104             0.0000000000
     13860       110  POPC      H3X            54.8992669644       11.2244683284       35.0559643087  MEMB      104             0.0000000000
     13861       110  POPC      H3Y            56.0149271653        9.8557846436       34.7197902484  MEMB      104             0.0000000000
     13862       110  POPC      C34            55.1322825415        9.8711268264       36.7157533140  MEMB      104             0.0000000000
     13863       110  POPC      H4X            55.2515689187        8.7814596154       36.8751301092  MEMB      104             0.0000000000
     13864       110  POPC      H4Y            54.1751521005       10.1871292024       37.1860236190  MEMB      104             0.0000000000
     13865       110  POPC      C35            56.2975639771       10.6022126282       37.3853224741  MEMB      104             0.0000000000
     13866       110  POPC      H5X            56.1669257827       11.6910587006       37.2020205016  MEMB      104             0.0000000000
     13867       110  POPC      H5Y            57.2436905547       10.2863971826       36.8880758884  MEMB      104             0.0000000000
     13868       110  POPC      C36            56.4172135814       10.3324117468       38.8960582940  MEMB      104             0.0000000000
     13869       110  POPC      H6X            57.4130898838       10.6990411961       39.2384225629  MEMB      104             0.0000000000
     13870       110  POPC      H6Y            56.3837498451        9.2369238439       39.0838581451  MEMB      104             0.0000000000
     13871       110  POPC      C37            55.3392810218       11.0337380211       39.7389403285  MEMB      104             0.0000000000
     13872       110  POPC      H7X            54.3329943343       10.6743057710       39.4355064771  MEMB      104             0.0000000000
     13873       110  POPC      H7Y            55.3730221879       12.1272622696       39.5333294430  MEMB      104             0.0000000000
     13874       110  POPC      C38            55.5406648119       10.8016979407       41.2449007362  MEMB      104             0.0000000000
     13875       110  POPC      H8X            56.5619515541       11.1552266150       41.5134114127  MEMB      104             0.0000000000
     13876       110  POPC      H8Y            55.4951793222        9.7128973827       41.4683412802  MEMB      104             0.0000000000
     13877       110  POPC      C39            54.5290780888       11.5489363209       42.1293978118  MEMB      104             0.0000000000
     13878       110  POPC      H9X            54.4431115565       12.6020513617       41.7786153076  MEMB      104             0.0000000000
     13879       110  POPC      H9Y            54.9356590922       11.5705685441       43.1652075431  MEMB      104             0.0000000000
     13880       110  POPC      C310           53.1372286026       10.8984592157       42.1511450084  MEMB      104             0.0000000000
     13881       110  POPC      H10X           53.2098498250        9.8591462851       42.5437421805  MEMB      104             0.0000000000
     13882       110  POPC      H10Y           52.7719442600       10.8431577996       41.1012063487  MEMB      104             0.0000000000
     13883       110  POPC      C311           52.0943658379       11.6805057085       42.9668415321  MEMB      104             0.0000000000
     13884       110  POPC      H11X           51.0964922403       11.2035182943       42.8406660912  MEMB      104             0.0000000000
     13885       110  POPC      H11Y           52.0234694511       12.7078545775       42.5400489736  MEMB      104             0.0000000000
     13886       110  POPC      C312           52.4097460549       11.7928695936       44.4667851521  MEMB      104             0.0000000000
     13887       110  POPC      H12X           52.3276112249       12.8671879344       44.7465266419  MEMB      104             0.0000000000
     13888       110  POPC      H12Y           53.4537757098       11.4829216682       44.6813783526  MEMB      104             0.0000000000
     13889       110  POPC      C313           51.4520120136       11.0020950788       45.3714146866  MEMB      104             0.0000000000
     13890       110  POPC      H13X           50.4081472341       11.0708585138       45.0096710740  MEMB      104             0.0000000000
     13891       110  POPC      H13Y           51.4891693261       11.4552431905       46.3853297519  MEMB      104             0.0000000000
     13892       110  POPC      C314           51.8312687077        9.5305906842       45.5120611032  MEMB      104             0.0000000000
     13893       110  POPC      H14X           52.9037499451        9.4879266401       45.8092781800  MEMB      104             0.0000000000
     13894       110  POPC      H14Y           51.7166201320        9.0245198238       44.5285117711  MEMB      104             0.0000000000
     13895       110  POPC      C315           51.0075252196        8.7925650610       46.5726044057  MEMB      104             0.0000000000
     13896       110  POPC      H15X           50.8853592447        9.4468782303       47.4638753861  MEMB      104             0.0000000000
     13897       110  POPC      H15Y           51.5826955139        7.8972499376       46.9012941283  MEMB      104             0.0000000000
     13898       110  POPC      C316           49.6454447373        8.3206814082       46.0674342406  MEMB      104             0.0000000000
     13899       110  POPC      H16X           49.7886460097        7.5217211803       45.3107977236  MEMB      104             0.0000000000
     13900       110  POPC      H16Y           49.0811820769        9.1539122746       45.5974989542  MEMB      104             0.0000000000
     13901       110  POPC      H16Z           49.0374252541        7.9119119473       46.9015673008  MEMB      104             0.0000000000
     13902       111  POPS      N              53.7887076602       50.7733261848       27.2184603064  MEMB      105             0.0000000000
     13903       111  POPS      HN1            54.0491881553       49.7653623583       27.1649299201  MEMB      105             0.0000000000
     13904       111  POPS      HN2            54.1137815305       51.1754945005       28.1149647999  MEMB      105             0.0000000000
     13905       111  POPS      HN3            52.7537634212       50.9288377198       27.1252461025  MEMB      105             0.0000000000
     13906       111  POPS      C12            54.5552748181       51.4625269251       26.1188716706  MEMB      105             0.0000000000
     13907       111  POPS      H12A           53.8688966325       51.6932842215       25.3178090839  MEMB      105             0.0000000000
     13908       111  POPS      C13            55.7179953985       50.6012960593       25.5421334414  MEMB      105             0.0000000000
     13909       111  POPS      O13A           56.1134522161       49.6018410795       26.1975389503  MEMB      105             0.0000000000
     13910       111  POPS      O13B           56.1884976993       50.8722038569       24.4057641833  MEMB      105             0.0000000000
     13911       111  POPS      C11            55.0797648581       52.7848133660       26.7408401151  MEMB      105             0.0000000000
     13912       111  POPS      H11A           55.8726781281       52.5772849240       27.4911016542  MEMB      105             0.0000000000
     13913       111  POPS      H11B           54.2035295519       53.2246801675       27.2849103571  MEMB      105             0.0000000000
     13914       111  POPS      P              55.5008296188       55.2448041001       26.0936174929  MEMB      105             0.0000000000
     13915       111  POPS      O13            54.9904495814       55.4070290294       27.4702525074  MEMB      105             0.0000000000
     13916       111  POPS      O14            54.6967805725       55.8850779251       25.0155376105  MEMB      105             0.0000000000
     13917       111  POPS      O12            55.5887447611       53.6913250611       25.7553743039  MEMB      105             0.0000000000
     13918       111  POPS      O11            56.9968654498       55.7382908154       26.0258235976  MEMB      105             0.0000000000
     13919       111  POPS      C1             58.0204921387       54.9392291675       25.4305365726  MEMB      105             0.0000000000
     13920       111  POPS      HA             58.6314136648       55.6219420574       24.8004276440  MEMB      105             0.0000000000
     13921       111  POPS      HB             57.6475600041       54.1353202070       24.7492846402  MEMB      105             0.0000000000
     13922       111  POPS      C2             58.9870926540       54.3110871321       26.4740913686  MEMB      105             0.0000000000
     13923       111  POPS      HS             59.9800369882       54.2342042188       25.9768917333  MEMB      105             0.0000000000
     13924       111  POPS      O21            58.5291226044       52.9852365444       26.8118980278  MEMB      105             0.0000000000
     13925       111  POPS      C21            59.3024170925       52.3974903409       27.7103665156  MEMB      105             0.0000000000
     13926       111  POPS      O22            60.3809641516       52.8418233856       28.0714291308  MEMB      105             0.0000000000
     13927       111  POPS      C22            58.5268745064       51.2294188257       28.3536779107  MEMB      105             0.0000000000
     13928       111  POPS      H2R            58.4111061387       50.4147191185       27.6106256211  MEMB      105             0.0000000000
     13929       111  POPS      H2S            57.5261687336       51.6235988801       28.6227193928  MEMB      105             0.0000000000
     13930       111  POPS      C3             59.1245064647       55.2317708767       27.7538963901  MEMB      105             0.0000000000
     13931       111  POPS      HX             58.9352761075       56.2696492382       27.4370844850  MEMB      105             0.0000000000
     13932       111  POPS      HY             60.2050539966       55.1789989584       28.0202149124  MEMB      105             0.0000000000
     13933       111  POPS      O31            58.2654865414       54.8992276355       28.8840107882  MEMB      105             0.0000000000
     13934       111  POPS      C31            58.7648656656       55.2871627743       30.0593888841  MEMB      105             0.0000000000
     13935       111  POPS      O32            59.8758485369       55.7631222967       30.2295279217  MEMB      105             0.0000000000
     13936       111  POPS      C32            57.7404053399       55.1571853427       31.1708758063  MEMB      105             0.0000000000
     13937       111  POPS      H2X            57.3183104633       54.1338770900       31.1605409034  MEMB      105             0.0000000000
     13938       111  POPS      H2Y            56.9311802741       55.8884052013       30.9692702166  MEMB      105             0.0000000000
     13939       111  POPS      C23            59.2252450591       50.7173915577       29.6296945518  MEMB      105             0.0000000000
     13940       111  POPS      H3R            59.5972998787       51.5925411739       30.2035031037  MEMB      105             0.0000000000
     13941       111  POPS      H3S            60.1031238326       50.1023176618       29.3240468981  MEMB      105             0.0000000000
     13942       111  POPS      C24            58.3687635438       49.9010660020       30.6062405827  MEMB      105             0.0000000000
     13943       111  POPS      H4R            59.0269165245       49.1163918773       31.0509804615  MEMB      105             0.0000000000
     13944       111  POPS      H4S            57.5536727733       49.3892251608       30.0609867849  MEMB      105             0.0000000000
     13945       111  POPS      C25            57.8273380483       50.7536991804       31.7653534970  MEMB      105             0.0000000000
     13946       111  POPS      H5R            56.8681368251       51.2235898519       31.4608505423  MEMB      105             0.0000000000
     13947       111  POPS      H5S            58.5456831796       51.5795614260       31.9715933571  MEMB      105             0.0000000000
     13948       111  POPS      C26            57.6564055635       49.9847168824       33.0838569445  MEMB      105             0.0000000000
     13949       111  POPS      H6R            58.6594356124       49.6936322322       33.4687544449  MEMB      105             0.0000000000
     13950       111  POPS      H6S            57.0879080051       49.0450102415       32.8984986401  MEMB      105             0.0000000000
     13951       111  POPS      C27            56.9085196784       50.7959416091       34.1589155327  MEMB      105             0.0000000000
     13952       111  POPS      H7R            56.8642377300       50.2051486895       35.1009993803  MEMB      105             0.0000000000
     13953       111  POPS      H7S            55.8606931150       50.9374155406       33.8084124535  MEMB      105             0.0000000000
     13954       111  POPS      C28            57.4820777914       52.2001977753       34.4520929683  MEMB      105             0.0000000000
     13955       111  POPS      H8R            56.7129725915       52.7374772707       35.0546435130  MEMB      105             0.0000000000
     13956       111  POPS      H8S            57.5658272872       52.7771847963       33.5070630682  MEMB      105             0.0000000000
     13957       111  POPS      C29            58.8067645593       52.2050126752       35.1780908692  MEMB      105             0.0000000000
     13958       111  POPS      H91            59.7088914513       52.1885478487       34.5460706406  MEMB      105             0.0000000000
     13959       111  POPS      C210           58.9353718126       52.1981835184       36.5179701691  MEMB      105             0.0000000000
     13960       111  POPS      H101           59.9368334654       52.2309890948       36.9757679132  MEMB      105             0.0000000000
     13961       111  POPS      C211           57.7721359123       52.1796285991       37.4728412799  MEMB      105             0.0000000000
     13962       111  POPS      H11R           57.2155665109       51.2215970564       37.3644778050  MEMB      105             0.0000000000
     13963       111  POPS      H11S           57.0604339779       53.0017426624       37.2300828147  MEMB      105             0.0000000000
     13964       111  POPS      C212           58.1636152193       52.3259465537       38.9515855411  MEMB      105             0.0000000000
     13965       111  POPS      H12R           58.6666223913       53.3080617272       39.0957174872  MEMB      105             0.0000000000
     13966       111  POPS      H12S           58.8703276862       51.5251735927       39.2598950810  MEMB      105             0.0000000000
     13967       111  POPS      C213           56.9167903483       52.2787808985       39.8413659292  MEMB      105             0.0000000000
     13968       111  POPS      H13R           56.4625799057       51.2666111125       39.8295596714  MEMB      105             0.0000000000
     13969       111  POPS      H13S           56.1731071698       52.9839118641       39.3994132853  MEMB      105             0.0000000000
     13970       111  POPS      C214           57.1654748558       52.7294372303       41.2808961655  MEMB      105             0.0000000000
     13971       111  POPS      H14R           56.1802985594       53.0278349373       41.7075135900  MEMB      105             0.0000000000
     13972       111  POPS      H14S           57.8171378748       53.6300082851       41.2783825906  MEMB      105             0.0000000000
     13973       111  POPS      C215           57.7625065242       51.6812216880       42.2245131204  MEMB      105             0.0000000000
     13974       111  POPS      H15R           58.7966313491       51.4235024882       41.9083975425  MEMB      105             0.0000000000
     13975       111  POPS      H15S           57.1437764190       50.7576105722       42.1805110265  MEMB      105             0.0000000000
     13976       111  POPS      C216           57.7694303900       52.2411038844       43.6533278569  MEMB      105             0.0000000000
     13977       111  POPS      H16R           56.7306619492       52.5565467851       43.9060379096  MEMB      105             0.0000000000
     13978       111  POPS      H16S           58.4043912466       53.1561643239       43.6775232464  MEMB      105             0.0000000000
     13979       111  POPS      C217           58.2389368038       51.2755464935       44.7428805097  MEMB      105             0.0000000000
     13980       111  POPS      H17R           58.2256883988       51.8371053829       45.7070681902  MEMB      105             0.0000000000
     13981       111  POPS      H17S           59.2881047919       50.9630230183       44.5414818474  MEMB      105             0.0000000000
     13982       111  POPS      C218           57.3564674911       50.0439745760       44.9049128217  MEMB      105             0.0000000000
     13983       111  POPS      H18R           56.2826915781       50.3266071812       44.8680285032  MEMB      105             0.0000000000
     13984       111  POPS      H18S           57.5485689919       49.5522905826       45.8797681137  MEMB      105             0.0000000000
     13985       111  POPS      H18T           57.5659169556       49.3133724318       44.0963727842  MEMB      105             0.0000000000
     13986       111  POPS      C33            58.4254464403       55.4652199983       32.5244331444  MEMB      105             0.0000000000
     13987       111  POPS      H3X            59.0656981687       56.3726458212       32.4378112867  MEMB      105             0.0000000000
     13988       111  POPS      H3Y            59.0986306643       54.6194485764       32.7959910232  MEMB      105             0.0000000000
     13989       111  POPS      C34            57.4661798825       55.7380733701       33.6851949835  MEMB      105             0.0000000000
     13990       111  POPS      H4X            56.7390569495       54.9035044531       33.7758217369  MEMB      105             0.0000000000
     13991       111  POPS      H4Y            56.8921822295       56.6692078394       33.4805809607  MEMB      105             0.0000000000
     13992       111  POPS      C35            58.2374715144       55.8934721241       35.0043258751  MEMB      105             0.0000000000
     13993       111  POPS      H5X            58.9315525109       56.7526866169       34.9209334100  MEMB      105             0.0000000000
     13994       111  POPS      H5Y            58.8650785825       54.9918547144       35.1747553077  MEMB      105             0.0000000000
     13995       111  POPS      C36            57.3137966230       56.0828502340       36.2100978748  MEMB      105             0.0000000000
     13996       111  POPS      H6X            56.6196950936       55.2125756120       36.2564743494  MEMB      105             0.0000000000
     13997       111  POPS      H6Y            56.6952056022       56.9937889552       36.0574189034  MEMB      105             0.0000000000
     13998       111  POPS      C37            58.0458683510       56.1994740885       37.5584747943  MEMB      105             0.0000000000
     13999       111  POPS      H7X            58.6919751735       57.1013745735       37.5671607085  MEMB      105             0.0000000000
     14000       111  POPS      H7Y            58.6862326894       55.3023274147       37.7035731580  MEMB      105             0.0000000000
     14001       111  POPS      C38            57.0221302926       56.2773805047       38.6935016212  MEMB      105             0.0000000000
     14002       111  POPS      H8X            56.4238135532       55.3392877968       38.6239452865  MEMB      105             0.0000000000
     14003       111  POPS      H8Y            56.3434047831       57.1383320380       38.5007321359  MEMB      105             0.0000000000
     14004       111  POPS      C39            57.5585212431       56.3785342098       40.1297906709  MEMB      105             0.0000000000
     14005       111  POPS      H9X            58.0197268523       57.3751204750       40.2988707672  MEMB      105             0.0000000000
     14006       111  POPS      H9Y            58.3361429509       55.6024086022       40.2740560163  MEMB      105             0.0000000000
     14007       111  POPS      C310           56.4237489392       56.1260663862       41.1375476438  MEMB      105             0.0000000000
     14008       111  POPS      H10X           55.9438386330       55.1637317331       40.8503062896  MEMB      105             0.0000000000
     14009       111  POPS      H10Y           55.6474854676       56.9088319686       41.0277933518  MEMB      105             0.0000000000
     14010       111  POPS      C311           56.8007649523       56.0113556772       42.6219971339  MEMB      105             0.0000000000
     14011       111  POPS      H11X           57.1581665853       56.9863990170       43.0145700500  MEMB      105             0.0000000000
     14012       111  POPS      H11Y           57.6289007244       55.2799123071       42.7408795700  MEMB      105             0.0000000000
     14013       111  POPS      C312           55.5808323340       55.5216375394       43.4256313523  MEMB      105             0.0000000000
     14014       111  POPS      H12X           55.1856676642       54.6146100310       42.9125163096  MEMB      105             0.0000000000
     14015       111  POPS      H12Y           54.7697441195       56.2806431622       43.4008061846  MEMB      105             0.0000000000
     14016       111  POPS      C313           55.8797043321       55.1289590396       44.8776270470  MEMB      105             0.0000000000
     14017       111  POPS      H13X           56.8668713041       54.6204409057       44.9351713582  MEMB      105             0.0000000000
     14018       111  POPS      H13Y           55.1022001852       54.3968298259       45.1962294978  MEMB      105             0.0000000000
     14019       111  POPS      C314           55.8512283607       56.3069109694       45.8570131817  MEMB      105             0.0000000000
     14020       111  POPS      H14X           54.8316410839       56.7508600502       45.8646614034  MEMB      105             0.0000000000
     14021       111  POPS      H14Y           56.5562441491       57.0926991654       45.5033949571  MEMB      105             0.0000000000
     14022       111  POPS      C315           56.2357342773       55.9002811543       47.2882697962  MEMB      105             0.0000000000
     14023       111  POPS      H15X           56.2167996642       56.8161508986       47.9163311090  MEMB      105             0.0000000000
     14024       111  POPS      H15Y           57.2829121640       55.5204091999       47.2799848447  MEMB      105             0.0000000000
     14025       111  POPS      C316           55.3339183769       54.8474278752       47.9389704203  MEMB      105             0.0000000000
     14026       111  POPS      H16X           55.3695234695       53.8915273472       47.3767969856  MEMB      105             0.0000000000
     14027       111  POPS      H16Y           54.2842340513       55.2001429989       47.9725694791  MEMB      105             0.0000000000
     14028       111  POPS      H16Z           55.6611241557       54.6509470559       48.9825755278  MEMB      105             0.0000000000
     14029       112  POPC      N              43.1086549434       62.9320411439       28.0959777595  MEMB      106             0.0000000000
     14030       112  POPC      C12            43.0831895907       64.0370340870       27.0323739663  MEMB      106             0.0000000000
     14031       112  POPC      H12A           44.0862813466       64.2198133417       26.6603207315  MEMB      106             0.0000000000
     14032       112  POPC      H12B           42.7662095253       64.9649198504       27.4881533837  MEMB      106             0.0000000000
     14033       112  POPC      C13            41.7240899166       62.5664361249       28.5263675277  MEMB      106             0.0000000000
     14034       112  POPC      H13A           41.7492532494       61.7195126897       29.2040540887  MEMB      106             0.0000000000
     14035       112  POPC      H13B           41.2275244991       63.3831531332       29.0317495362  MEMB      106             0.0000000000
     14036       112  POPC      H13C           41.1167706976       62.2856158204       27.6595658706  MEMB      106             0.0000000000
     14037       112  POPC      C14            43.6687333711       61.7049953462       27.4668500328  MEMB      106             0.0000000000
     14038       112  POPC      H14A           43.1113556927       61.5261694720       26.5369373095  MEMB      106             0.0000000000
     14039       112  POPC      H14B           44.6921439695       61.8216663729       27.1711943657  MEMB      106             0.0000000000
     14040       112  POPC      H14C           43.5409192880       60.8393428830       28.0970612949  MEMB      106             0.0000000000
     14041       112  POPC      C15            43.8499785252       63.3345098121       29.3353969163  MEMB      106             0.0000000000
     14042       112  POPC      H15A           44.8849659961       63.6194387252       29.1607224228  MEMB      106             0.0000000000
     14043       112  POPC      H15B           43.8817619054       62.5292574691       30.0584352395  MEMB      106             0.0000000000
     14044       112  POPC      H15C           43.3764630380       64.1717896199       29.8307507742  MEMB      106             0.0000000000
     14045       112  POPC      C11            42.1832559547       63.8446853649       25.7713696506  MEMB      106             0.0000000000
     14046       112  POPC      H11A           42.2199306308       64.7828429504       25.1702551805  MEMB      106             0.0000000000
     14047       112  POPC      H11B           41.1398199104       63.7326682832       26.1212238335  MEMB      106             0.0000000000
     14048       112  POPC      P              41.5128226785       62.1989168071       23.8784402228  MEMB      106             0.0000000000
     14049       112  POPC      O13            42.0583967869       60.9913580344       23.2222551233  MEMB      106             0.0000000000
     14050       112  POPC      O14            41.0947089523       63.2854074025       22.9562495110  MEMB      106             0.0000000000
     14051       112  POPC      O12            42.5719365981       62.7414034280       24.9500085810  MEMB      106             0.0000000000
     14052       112  POPC      O11            40.3449489157       61.7727240705       24.8696778851  MEMB      106             0.0000000000
     14053       112  POPC      C1             39.0410041785       62.3507619705       24.8791544239  MEMB      106             0.0000000000
     14054       112  POPC      HA             38.3901663125       61.7575702190       24.2027524425  MEMB      106             0.0000000000
     14055       112  POPC      HB             39.0528341884       63.3936129749       24.4818234235  MEMB      106             0.0000000000
     14056       112  POPC      C2             38.3406716852       62.3944893568       26.2927647386  MEMB      106             0.0000000000
     14057       112  POPC      HS             37.3174500278       62.8148429650       26.1229564488  MEMB      106             0.0000000000
     14058       112  POPC      O21            39.0969461809       63.1875414584       27.2389727000  MEMB      106             0.0000000000
     14059       112  POPC      C21            38.8419668858       64.4909615009       27.1498077813  MEMB      106             0.0000000000
     14060       112  POPC      O22            37.9708599587       64.9747672984       26.4433650885  MEMB      106             0.0000000000
     14061       112  POPC      C22            39.7029830703       65.2569148776       28.1375700203  MEMB      106             0.0000000000
     14062       112  POPC      H2R            39.4773048866       66.3322401808       28.0150316661  MEMB      106             0.0000000000
     14063       112  POPC      H2S            40.7690019472       65.1139687332       27.8936948169  MEMB      106             0.0000000000
     14064       112  POPC      C3             38.0684375884       60.9992401491       26.9499665917  MEMB      106             0.0000000000
     14065       112  POPC      HX             37.6798659914       60.3389142867       26.1453535882  MEMB      106             0.0000000000
     14066       112  POPC      HY             37.2445687630       61.1545114071       27.6854325205  MEMB      106             0.0000000000
     14067       112  POPC      O31            39.2204649592       60.3852737703       27.5538334389  MEMB      106             0.0000000000
     14068       112  POPC      C31            39.1501506774       59.9327166571       28.8077929956  MEMB      106             0.0000000000
     14069       112  POPC      O32            38.1650188493       59.9894785414       29.5282868664  MEMB      106             0.0000000000
     14070       112  POPC      C32            40.4857366334       59.2747522154       29.1833915451  MEMB      106             0.0000000000
     14071       112  POPC      H2X            41.2453818821       59.6017982637       28.4417920107  MEMB      106             0.0000000000
     14072       112  POPC      H2Y            40.3749128572       58.1778725671       29.0561141581  MEMB      106             0.0000000000
     14073       112  POPC      C23            39.3860105125       64.8242580269       29.5823000039  MEMB      106             0.0000000000
     14074       112  POPC      H3R            39.5258362866       63.7304351237       29.7141133095  MEMB      106             0.0000000000
     14075       112  POPC      H3S            38.3107606763       65.0332138808       29.7926767773  MEMB      106             0.0000000000
     14076       112  POPC      C24            40.2204789948       65.5862568859       30.6088548415  MEMB      106             0.0000000000
     14077       112  POPC      H4R            40.0888405700       66.6672762397       30.3862226939  MEMB      106             0.0000000000
     14078       112  POPC      H4S            41.3012758235       65.3452797742       30.5183660007  MEMB      106             0.0000000000
     14079       112  POPC      C25            39.7388494991       65.3429568518       32.0383880137  MEMB      106             0.0000000000
     14080       112  POPC      H5R            38.6344907142       65.4866092737       32.0804590615  MEMB      106             0.0000000000
     14081       112  POPC      H5S            40.2034492975       66.0955354492       32.7168828607  MEMB      106             0.0000000000
     14082       112  POPC      C26            40.0538598578       63.9510988713       32.5797886123  MEMB      106             0.0000000000
     14083       112  POPC      H6R            41.1571037013       63.8088559285       32.6225682132  MEMB      106             0.0000000000
     14084       112  POPC      H6S            39.6255589112       63.1623287920       31.9230043730  MEMB      106             0.0000000000
     14085       112  POPC      C27            39.4655685731       63.7979928343       33.9831572298  MEMB      106             0.0000000000
     14086       112  POPC      H7R            38.3532158020       63.7951205483       33.9293808144  MEMB      106             0.0000000000
     14087       112  POPC      H7S            39.7665949450       64.6853764943       34.5904425112  MEMB      106             0.0000000000
     14088       112  POPC      C28            39.9640950256       62.5431368808       34.7055978607  MEMB      106             0.0000000000
     14089       112  POPC      H8R            39.6542270441       62.6450989674       35.7691830504  MEMB      106             0.0000000000
     14090       112  POPC      H8S            41.0737991670       62.5660697753       34.7103713306  MEMB      106             0.0000000000
     14091       112  POPC      C29            39.4664427403       61.2540917094       34.0959405600  MEMB      106             0.0000000000
     14092       112  POPC      H91            40.0263618719       60.8923528232       33.2205209777  MEMB      106             0.0000000000
     14093       112  POPC      C210           38.4266392400       60.5350399646       34.5523727798  MEMB      106             0.0000000000
     14094       112  POPC      H101           38.1616819611       59.5877777068       34.0568328140  MEMB      106             0.0000000000
     14095       112  POPC      C211           37.5911252263       60.9095707093       35.7482022831  MEMB      106             0.0000000000
     14096       112  POPC      H11R           36.6260743010       60.3571297205       35.7254379379  MEMB      106             0.0000000000
     14097       112  POPC      H11S           37.3457198105       61.9965135400       35.7244483174  MEMB      106             0.0000000000
     14098       112  POPC      C212           38.2949904298       60.6006433183       37.0792124375  MEMB      106             0.0000000000
     14099       112  POPC      H12R           39.3042553963       61.0679880213       37.1035265824  MEMB      106             0.0000000000
     14100       112  POPC      H12S           38.4508799857       59.5041804216       37.1680821292  MEMB      106             0.0000000000
     14101       112  POPC      C213           37.5144829388       61.1025489132       38.3028770379  MEMB      106             0.0000000000
     14102       112  POPC      H13R           36.5899509033       60.4905147261       38.4002550935  MEMB      106             0.0000000000
     14103       112  POPC      H13S           37.2126987405       62.1633455746       38.1591862363  MEMB      106             0.0000000000
     14104       112  POPC      C214           38.3648516638       60.9857917055       39.5729557258  MEMB      106             0.0000000000
     14105       112  POPC      H14R           39.1617055831       61.7618499756       39.5776223690  MEMB      106             0.0000000000
     14106       112  POPC      H14S           38.8850718989       60.0051619449       39.5213301779  MEMB      106             0.0000000000
     14107       112  POPC      C215           37.5693217606       61.0292929318       40.8824634498  MEMB      106             0.0000000000
     14108       112  POPC      H15R           36.5504079246       60.6102057073       40.7169912753  MEMB      106             0.0000000000
     14109       112  POPC      H15S           37.4525835055       62.0836557917       41.2165108087  MEMB      106             0.0000000000
     14110       112  POPC      C216           38.2650368090       60.1960774189       41.9695149434  MEMB      106             0.0000000000
     14111       112  POPC      H16R           39.3225526770       60.5252699809       42.0806917900  MEMB      106             0.0000000000
     14112       112  POPC      H16S           38.2830014485       59.1357356090       41.6274334862  MEMB      106             0.0000000000
     14113       112  POPC      C217           37.5700992517       60.2469581436       43.3336536619  MEMB      106             0.0000000000
     14114       112  POPC      H17R           37.8091039279       59.3043650307       43.8782602287  MEMB      106             0.0000000000
     14115       112  POPC      H17S           36.4682042063       60.2712866900       43.1821703899  MEMB      106             0.0000000000
     14116       112  POPC      C218           38.0199583456       61.4221261847       44.2025585305  MEMB      106             0.0000000000
     14117       112  POPC      H18R           37.7648138580       62.3897321561       43.7187846159  MEMB      106             0.0000000000
     14118       112  POPC      H18S           39.1197143578       61.3866286069       44.3582263075  MEMB      106             0.0000000000
     14119       112  POPC      H18T           37.5345635050       61.3879182366       45.2007823623  MEMB      106             0.0000000000
     14120       112  POPC      C33            40.9799890365       59.6086170552       30.6180101488  MEMB      106             0.0000000000
     14121       112  POPC      H3X            40.4815571222       58.9445077062       31.3576165344  MEMB      106             0.0000000000
     14122       112  POPC      H3Y            40.7098223766       60.6546601097       30.8824899840  MEMB      106             0.0000000000
     14123       112  POPC      C34            42.5064092133       59.4790878252       30.7421374649  MEMB      106             0.0000000000
     14124       112  POPC      H4X            42.9679529191       60.0591828619       29.9130251967  MEMB      106             0.0000000000
     14125       112  POPC      H4Y            42.7980256777       58.4136094387       30.6075091305  MEMB      106             0.0000000000
     14126       112  POPC      C35            43.0932546264       60.0015539996       32.0636204055  MEMB      106             0.0000000000
     14127       112  POPC      H5X            42.6276826659       60.9760028313       32.3211525509  MEMB      106             0.0000000000
     14128       112  POPC      H5Y            44.1891426557       60.1730134171       31.9276975923  MEMB      106             0.0000000000
     14129       112  POPC      C36            42.9371573116       59.0089925319       33.2238153024  MEMB      106             0.0000000000
     14130       112  POPC      H6X            43.4102532788       58.0573633175       32.9065686639  MEMB      106             0.0000000000
     14131       112  POPC      H6Y            41.8608330375       58.8158656091       33.4239248532  MEMB      106             0.0000000000
     14132       112  POPC      C37            43.6286906839       59.4483672979       34.5251729626  MEMB      106             0.0000000000
     14133       112  POPC      H7X            44.7023374539       59.6671663845       34.3245226357  MEMB      106             0.0000000000
     14134       112  POPC      H7Y            43.5775618196       58.6087147800       35.2561378586  MEMB      106             0.0000000000
     14135       112  POPC      C38            42.9619111915       60.6725203762       35.1445142806  MEMB      106             0.0000000000
     14136       112  POPC      H8X            41.8749094646       60.4579719416       35.2628036315  MEMB      106             0.0000000000
     14137       112  POPC      H8Y            43.0777395246       61.5369255178       34.4514479309  MEMB      106             0.0000000000
     14138       112  POPC      C39            43.5170134142       61.0731332549       36.5130316032  MEMB      106             0.0000000000
     14139       112  POPC      H9X            44.6204038080       61.2114450898       36.4479479508  MEMB      106             0.0000000000
     14140       112  POPC      H9Y            43.3161274125       60.2622717389       37.2479240446  MEMB      106             0.0000000000
     14141       112  POPC      C310           42.8706436020       62.3821428080       36.9853875661  MEMB      106             0.0000000000
     14142       112  POPC      H10X           41.7649446739       62.2675843915       37.0247399236  MEMB      106             0.0000000000
     14143       112  POPC      H10Y           43.1012141468       63.1681812229       36.2291658834  MEMB      106             0.0000000000
     14144       112  POPC      C311           43.3808166260       62.8488645690       38.3470635163  MEMB      106             0.0000000000
     14145       112  POPC      H11X           43.1745940836       63.9373997026       38.4615437267  MEMB      106             0.0000000000
     14146       112  POPC      H11Y           44.4840371887       62.7040106950       38.3761439180  MEMB      106             0.0000000000
     14147       112  POPC      C312           42.7412499934       62.1137371313       39.5271248856  MEMB      106             0.0000000000
     14148       112  POPC      H12X           42.9179273511       61.0198977971       39.4155716720  MEMB      106             0.0000000000
     14149       112  POPC      H12Y           41.6414740873       62.2817934006       39.5339029974  MEMB      106             0.0000000000
     14150       112  POPC      C313           43.3464411026       62.5835596951       40.8530683518  MEMB      106             0.0000000000
     14151       112  POPC      H13X           43.1180649798       63.6602483497       41.0136491803  MEMB      106             0.0000000000
     14152       112  POPC      H13Y           44.4515455543       62.4816994142       40.7577341059  MEMB      106             0.0000000000
     14153       112  POPC      C314           42.8493369179       61.7619764647       42.0463561768  MEMB      106             0.0000000000
     14154       112  POPC      H14X           43.0401201547       60.6880251781       41.8237653918  MEMB      106             0.0000000000
     14155       112  POPC      H14Y           41.7480262610       61.8845673431       42.1502523174  MEMB      106             0.0000000000
     14156       112  POPC      C315           43.5317953513       62.1252656959       43.3745884318  MEMB      106             0.0000000000
     14157       112  POPC      H15X           43.2547859259       61.3502708644       44.1255733780  MEMB      106             0.0000000000
     14158       112  POPC      H15Y           43.1263597209       63.0947005681       43.7423118462  MEMB      106             0.0000000000
     14159       112  POPC      C316           45.0596825206       62.2248418995       43.2916686204  MEMB      106             0.0000000000
     14160       112  POPC      H16X           45.4632135664       61.4127072812       42.6615143790  MEMB      106             0.0000000000
     14161       112  POPC      H16Y           45.5243946085       62.1304386548       44.2947439726  MEMB      106             0.0000000000
     14162       112  POPC      H16Z           45.3662083556       63.1957321556       42.8459597616  MEMB      106             0.0000000000
     14163       113  POPC      N              65.1032784942       38.4336564513       27.1594170238  MEMB      107             0.0000000000
     14164       113  POPC      C12            64.4627607697       39.1657633285       25.9820045505  MEMB      107             0.0000000000
     14165       113  POPC      H12A           64.3898042813       38.4911544940       25.1317227614  MEMB      107             0.0000000000
     14166       113  POPC      H12B           65.1038543340       39.9903939765       25.6993004582  MEMB      107             0.0000000000
     14167       113  POPC      C13            64.8313654309       39.2157623014       28.4112444953  MEMB      107             0.0000000000
     14168       113  POPC      H13A           65.1173881696       38.6834956760       29.3068117187  MEMB      107             0.0000000000
     14169       113  POPC      H13B           65.2793456308       40.1995218961       28.3941750179  MEMB      107             0.0000000000
     14170       113  POPC      H13C           63.7476904328       39.3625084515       28.4674914389  MEMB      107             0.0000000000
     14171       113  POPC      C14            64.3952645882       37.1261508555       27.3153972252  MEMB      107             0.0000000000
     14172       113  POPC      H14A           64.5846744420       36.4550839129       26.4765151386  MEMB      107             0.0000000000
     14173       113  POPC      H14B           64.6098042847       36.6110611775       28.2353312444  MEMB      107             0.0000000000
     14174       113  POPC      H14C           63.3158720508       37.3090447902       27.2860652272  MEMB      107             0.0000000000
     14175       113  POPC      C15            66.5605500826       38.1649748203       26.9604050874  MEMB      107             0.0000000000
     14176       113  POPC      H15A           66.9212271580       37.5306354518       27.7677712153  MEMB      107             0.0000000000
     14177       113  POPC      H15B           67.1559406123       39.0637540563       26.9160677436  MEMB      107             0.0000000000
     14178       113  POPC      H15C           66.7335928211       37.6157929635       26.0366265985  MEMB      107             0.0000000000
     14179       113  POPC      C11            63.0351621833       39.7556905113       26.1992723038  MEMB      107             0.0000000000
     14180       113  POPC      H11A           62.6963084503       40.2846474302       25.2793041721  MEMB      107             0.0000000000
     14181       113  POPC      H11B           63.1033978202       40.5455184042       26.9705437826  MEMB      107             0.0000000000
     14182       113  POPC      P              60.9631915291       38.1681790871       25.7064395024  MEMB      107             0.0000000000
     14183       113  POPC      O13            60.8766214606       36.7226773341       25.9854886617  MEMB      107             0.0000000000
     14184       113  POPC      O14            61.2526769604       38.5467279300       24.2950475638  MEMB      107             0.0000000000
     14185       113  POPC      O12            62.0952229150       38.7807289860       26.6428213347  MEMB      107             0.0000000000
     14186       113  POPC      O11            59.6210029180       38.8251707783       26.2086324576  MEMB      107             0.0000000000
     14187       113  POPC      C1             59.5257434169       40.2046859246       26.5353012540  MEMB      107             0.0000000000
     14188       113  POPC      HA             58.5251758090       40.5100233736       26.1715083438  MEMB      107             0.0000000000
     14189       113  POPC      HB             60.2405511657       40.8300484073       25.9674956454  MEMB      107             0.0000000000
     14190       113  POPC      C2             59.5021939885       40.5426251913       28.0726355133  MEMB      107             0.0000000000
     14191       113  POPC      HS             58.8193200255       41.4180320750       28.1823183498  MEMB      107             0.0000000000
     14192       113  POPC      O21            60.7747709436       40.8679917773       28.6660102096  MEMB      107             0.0000000000
     14193       113  POPC      C21            61.3721982177       41.9555063607       28.2393594973  MEMB      107             0.0000000000
     14194       113  POPC      O22            61.0804200645       42.5886265095       27.2391953186  MEMB      107             0.0000000000
     14195       113  POPC      C22            62.5283833463       42.3541217601       29.1901604088  MEMB      107             0.0000000000
     14196       113  POPC      H2R            62.3936667440       43.4379072922       29.4012883909  MEMB      107             0.0000000000
     14197       113  POPC      H2S            63.4833211985       42.2293292986       28.6469398759  MEMB      107             0.0000000000
     14198       113  POPC      C3             58.8938624885       39.3972011733       28.9303810040  MEMB      107             0.0000000000
     14199       113  POPC      HX             58.0004875223       39.0416313956       28.3696587960  MEMB      107             0.0000000000
     14200       113  POPC      HY             58.5363940560       39.8171109895       29.8990581129  MEMB      107             0.0000000000
     14201       113  POPC      O31            59.7989816906       38.2848638266       29.1242221756  MEMB      107             0.0000000000
     14202       113  POPC      C31            60.6428280999       38.3711172385       30.1401329024  MEMB      107             0.0000000000
     14203       113  POPC      O32            60.6415210012       39.2015365575       31.0297695852  MEMB      107             0.0000000000
     14204       113  POPC      C32            61.6283322262       37.2014591488       29.9836321668  MEMB      107             0.0000000000
     14205       113  POPC      H2X            62.0327983745       37.2835194521       28.9526095789  MEMB      107             0.0000000000
     14206       113  POPC      H2Y            61.0240210738       36.2803863172       30.0421307756  MEMB      107             0.0000000000
     14207       113  POPC      C23            62.5922341744       41.5849030639       30.5373409221  MEMB      107             0.0000000000
     14208       113  POPC      H3R            62.7425055637       40.4983179280       30.3644877139  MEMB      107             0.0000000000
     14209       113  POPC      H3S            61.6063058699       41.6865747398       31.0344756418  MEMB      107             0.0000000000
     14210       113  POPC      C24            63.6820583373       42.0932683562       31.4970736611  MEMB      107             0.0000000000
     14211       113  POPC      H4R            63.7713659118       43.1991973659       31.3826537986  MEMB      107             0.0000000000
     14212       113  POPC      H4S            64.6599330434       41.6444359920       31.2137715638  MEMB      107             0.0000000000
     14213       113  POPC      C25            63.4005074209       41.8127292891       32.9892898043  MEMB      107             0.0000000000
     14214       113  POPC      H5R            62.4891882156       42.3769383287       33.2834301736  MEMB      107             0.0000000000
     14215       113  POPC      H5S            64.2470122670       42.2219034007       33.5867032650  MEMB      107             0.0000000000
     14216       113  POPC      C26            63.2174049376       40.3297754918       33.3646577733  MEMB      107             0.0000000000
     14217       113  POPC      H6R            64.1544691339       39.7927113880       33.0899235708  MEMB      107             0.0000000000
     14218       113  POPC      H6S            62.3831826610       39.8803903664       32.7859407447  MEMB      107             0.0000000000
     14219       113  POPC      C27            62.9641885772       40.1037974428       34.8720955868  MEMB      107             0.0000000000
     14220       113  POPC      H7R            63.6934697153       40.7293430524       35.4329659533  MEMB      107             0.0000000000
     14221       113  POPC      H7S            63.1929918492       39.0436843594       35.1250626556  MEMB      107             0.0000000000
     14222       113  POPC      C28            61.5387524015       40.4462857447       35.3637200387  MEMB      107             0.0000000000
     14223       113  POPC      H8R            61.2338955333       41.4158347294       34.9153435993  MEMB      107             0.0000000000
     14224       113  POPC      H8S            61.6038093097       40.6301874881       36.4580352162  MEMB      107             0.0000000000
     14225       113  POPC      C29            60.5084532690       39.3839827076       35.0440766757  MEMB      107             0.0000000000
     14226       113  POPC      H91            60.3685034957       39.2053844826       33.9636697133  MEMB      107             0.0000000000
     14227       113  POPC      C210           59.7805958450       38.6561816467       35.9217191410  MEMB      107             0.0000000000
     14228       113  POPC      H101           59.0520115313       37.9297918233       35.5225062921  MEMB      107             0.0000000000
     14229       113  POPC      C211           59.8372710534       38.7432819751       37.4315771880  MEMB      107             0.0000000000
     14230       113  POPC      H11R           58.9879360610       39.3499567606       37.8094911837  MEMB      107             0.0000000000
     14231       113  POPC      H11S           60.7642824626       39.2569895666       37.7641764546  MEMB      107             0.0000000000
     14232       113  POPC      C212           59.7944920049       37.3936855519       38.1838750703  MEMB      107             0.0000000000
     14233       113  POPC      H12R           60.6466105130       36.7652472830       37.8431264129  MEMB      107             0.0000000000
     14234       113  POPC      H12S           58.8525778390       36.8484936074       37.9563794033  MEMB      107             0.0000000000
     14235       113  POPC      C213           59.9074986275       37.5989435497       39.7064757522  MEMB      107             0.0000000000
     14236       113  POPC      H13R           58.9892574842       38.0988519929       40.0858690175  MEMB      107             0.0000000000
     14237       113  POPC      H13S           60.7559445434       38.2880492654       39.8984610854  MEMB      107             0.0000000000
     14238       113  POPC      C214           60.1812125513       36.3146873021       40.5023403508  MEMB      107             0.0000000000
     14239       113  POPC      H14R           60.9489744426       35.7157245527       39.9607114459  MEMB      107             0.0000000000
     14240       113  POPC      H14S           59.2583984078       35.6992755906       40.5506566632  MEMB      107             0.0000000000
     14241       113  POPC      C215           60.7160524784       36.5715116214       41.9262451953  MEMB      107             0.0000000000
     14242       113  POPC      H15R           61.7401026925       37.0020826714       41.8495311464  MEMB      107             0.0000000000
     14243       113  POPC      H15S           60.8045038731       35.5884451415       42.4383861170  MEMB      107             0.0000000000
     14244       113  POPC      C216           59.8644593837       37.5230185050       42.7867625801  MEMB      107             0.0000000000
     14245       113  POPC      H16R           58.8209987135       37.1455827611       42.8476899896  MEMB      107             0.0000000000
     14246       113  POPC      H16S           59.8324843254       38.5218876297       42.2962321989  MEMB      107             0.0000000000
     14247       113  POPC      C217           60.4199826952       37.7046076934       44.2108171737  MEMB      107             0.0000000000
     14248       113  POPC      H17R           59.8772866621       38.5452457651       44.7025406357  MEMB      107             0.0000000000
     14249       113  POPC      H17S           61.4909671367       38.0026240159       44.1373388992  MEMB      107             0.0000000000
     14250       113  POPC      C218           60.3033907785       36.4619635335       45.1002260069  MEMB      107             0.0000000000
     14251       113  POPC      H18R           60.7568732167       35.5800352514       44.6084353046  MEMB      107             0.0000000000
     14252       113  POPC      H18S           59.2393195415       36.2270077121       45.3100633214  MEMB      107             0.0000000000
     14253       113  POPC      H18T           60.8207899990       36.6235603318       46.0700235828  MEMB      107             0.0000000000
     14254       113  POPC      C33            62.8041095688       37.0994764804       30.9891717679  MEMB      107             0.0000000000
     14255       113  POPC      H3X            63.3082006276       38.0802652344       31.1258072999  MEMB      107             0.0000000000
     14256       113  POPC      H3Y            63.5563670847       36.4000237671       30.5538477313  MEMB      107             0.0000000000
     14257       113  POPC      C34            62.4058999362       36.5288589869       32.3602325935  MEMB      107             0.0000000000
     14258       113  POPC      H4X            61.7187779040       35.6630247401       32.2413595749  MEMB      107             0.0000000000
     14259       113  POPC      H4Y            61.8482889706       37.3156219712       32.9206914320  MEMB      107             0.0000000000
     14260       113  POPC      C35            63.6172391015       36.0626589613       33.1852462076  MEMB      107             0.0000000000
     14261       113  POPC      H5X            64.3812575938       36.8732248669       33.1824065675  MEMB      107             0.0000000000
     14262       113  POPC      H5Y            64.0752743076       35.1641146563       32.7172825905  MEMB      107             0.0000000000
     14263       113  POPC      C36            63.2576413746       35.7506930487       34.6477644956  MEMB      107             0.0000000000
     14264       113  POPC      H6X            62.5045527288       34.9333893399       34.6809701704  MEMB      107             0.0000000000
     14265       113  POPC      H6Y            62.7790839335       36.6604010976       35.0746847366  MEMB      107             0.0000000000
     14266       113  POPC      C37            64.4801032548       35.3611690872       35.5029742939  MEMB      107             0.0000000000
     14267       113  POPC      H7X            65.2650074552       36.1426550354       35.3989269466  MEMB      107             0.0000000000
     14268       113  POPC      H7Y            64.9005791491       34.4157250254       35.0899118108  MEMB      107             0.0000000000
     14269       113  POPC      C38            64.1655452754       35.1360173265       36.9975124104  MEMB      107             0.0000000000
     14270       113  POPC      H8X            65.0758695438       34.7515722018       37.5104814275  MEMB      107             0.0000000000
     14271       113  POPC      H8Y            63.3864967232       34.3430818847       37.0680108440  MEMB      107             0.0000000000
     14272       113  POPC      C39            63.6618552318       36.3808743756       37.7548571176  MEMB      107             0.0000000000
     14273       113  POPC      H9X            63.2674238640       36.0664430846       38.7470391380  MEMB      107             0.0000000000
     14274       113  POPC      H9Y            62.8099968825       36.8272289260       37.1966718686  MEMB      107             0.0000000000
     14275       113  POPC      C310           64.7313934352       37.4636015684       37.9737323083  MEMB      107             0.0000000000
     14276       113  POPC      H10X           65.2737755180       37.6183203126       37.0115111664  MEMB      107             0.0000000000
     14277       113  POPC      H10Y           65.4711282680       37.1257971610       38.7312954929  MEMB      107             0.0000000000
     14278       113  POPC      C311           64.1252319819       38.8197384559       38.3700361850  MEMB      107             0.0000000000
     14279       113  POPC      H11X           63.2888716141       39.0424925615       37.6681719599  MEMB      107             0.0000000000
     14280       113  POPC      H11Y           64.8919988458       39.6137057970       38.2278659546  MEMB      107             0.0000000000
     14281       113  POPC      C312           63.5976236935       38.9150262397       39.8111683158  MEMB      107             0.0000000000
     14282       113  POPC      H12X           64.4592069468       38.9284936819       40.5146291101  MEMB      107             0.0000000000
     14283       113  POPC      H12Y           62.9750974764       38.0267417297       40.0526771007  MEMB      107             0.0000000000
     14284       113  POPC      C313           62.7578688821       40.1908275300       39.9915285635  MEMB      107             0.0000000000
     14285       113  POPC      H13X           61.7937955831       40.0855382871       39.4525970295  MEMB      107             0.0000000000
     14286       113  POPC      H13Y           63.2973500795       41.0175224061       39.4856801447  MEMB      107             0.0000000000
     14287       113  POPC      C314           62.4759334701       40.5874378627       41.4483445857  MEMB      107             0.0000000000
     14288       113  POPC      H14X           63.4405303173       40.6908699727       41.9920032685  MEMB      107             0.0000000000
     14289       113  POPC      H14Y           61.8952526855       39.7823059397       41.9496629126  MEMB      107             0.0000000000
     14290       113  POPC      C315           61.7033174901       41.9144102415       41.5331982406  MEMB      107             0.0000000000
     14291       113  POPC      H15X           60.7171104270       41.7830596098       41.0322494628  MEMB      107             0.0000000000
     14292       113  POPC      H15Y           62.2620404787       42.6901045583       40.9614035570  MEMB      107             0.0000000000
     14293       113  POPC      C316           61.4833170459       42.4309402640       42.9568257684  MEMB      107             0.0000000000
     14294       113  POPC      H16X           61.0030587429       43.4333032842       42.9361562948  MEMB      107             0.0000000000
     14295       113  POPC      H16Y           62.4555036680       42.5193721658       43.4878178480  MEMB      107             0.0000000000
     14296       113  POPC      H16Z           60.8247770351       41.7410297714       43.5256356632  MEMB      107             0.0000000000
     14297       114  POPS      N              59.3805398076       22.6643715327       26.1805065666  MEMB      108             0.0000000000
     14298       114  POPS      HN1            58.6744313295       23.3294109110       26.5313632114  MEMB      108             0.0000000000
     14299       114  POPS      HN2            60.0575113250       23.1591862265       25.5602414012  MEMB      108             0.0000000000
     14300       114  POPS      HN3            58.9308795769       21.8535517653       25.6852730418  MEMB      108             0.0000000000
     14301       114  POPS      C12            60.1791444020       22.0344262606       27.2707449158  MEMB      108             0.0000000000
     14302       114  POPS      H12A           59.5974415032       21.9898639356       28.1796809354  MEMB      108             0.0000000000
     14303       114  POPS      C13            61.5315707202       22.7108949399       27.5563330382  MEMB      108             0.0000000000
     14304       114  POPS      O13A           61.9869349142       23.5447182618       26.7319948210  MEMB      108             0.0000000000
     14305       114  POPS      O13B           62.1546011937       22.3160910837       28.5707798797  MEMB      108             0.0000000000
     14306       114  POPS      C11            60.5574519263       20.6228822896       26.7686956898  MEMB      108             0.0000000000
     14307       114  POPS      H11A           60.9204546240       20.0237731760       27.6268458495  MEMB      108             0.0000000000
     14308       114  POPS      H11B           61.4257651741       20.7210803384       26.0933886746  MEMB      108             0.0000000000
     14309       114  POPS      P              59.8130265162       18.6077638268       25.3657058145  MEMB      108             0.0000000000
     14310       114  POPS      O13            61.1876431930       18.7159453866       24.8032245834  MEMB      108             0.0000000000
     14311       114  POPS      O14            58.6935207347       18.4711789207       24.3992535753  MEMB      108             0.0000000000
     14312       114  POPS      O12            59.4740824814       19.9808609957       26.0838577280  MEMB      108             0.0000000000
     14313       114  POPS      O11            59.7791325581       17.5565617969       26.5315416612  MEMB      108             0.0000000000
     14314       114  POPS      C1             58.7993379434       17.5278624256       27.5695738197  MEMB      108             0.0000000000
     14315       114  POPS      HA             58.8469263330       16.4968616850       27.9559454806  MEMB      108             0.0000000000
     14316       114  POPS      HB             57.7732046642       17.6951649927       27.1744208491  MEMB      108             0.0000000000
     14317       114  POPS      C2             59.0442273526       18.4412028313       28.8284954597  MEMB      108             0.0000000000
     14318       114  POPS      HS             58.8144233369       19.4849566974       28.5158896098  MEMB      108             0.0000000000
     14319       114  POPS      O21            60.4126431501       18.3318223103       29.2509231352  MEMB      108             0.0000000000
     14320       114  POPS      C21            60.7664146086       19.2971825064       30.0963174790  MEMB      108             0.0000000000
     14321       114  POPS      O22            60.1353803756       20.3240242941       30.2890060353  MEMB      108             0.0000000000
     14322       114  POPS      C22            62.0996707047       18.9472443915       30.7038673523  MEMB      108             0.0000000000
     14323       114  POPS      H2R            62.8487889206       19.6528198861       30.2891194922  MEMB      108             0.0000000000
     14324       114  POPS      H2S            62.3628469690       17.9147789263       30.3780877174  MEMB      108             0.0000000000
     14325       114  POPS      C3             58.0663401257       18.0673323562       30.0072283159  MEMB      108             0.0000000000
     14326       114  POPS      HX             57.8253261360       16.9973910797       29.9214816452  MEMB      108             0.0000000000
     14327       114  POPS      HY             57.1364544018       18.6357747652       29.8144353788  MEMB      108             0.0000000000
     14328       114  POPS      O31            58.5340842248       18.3545078945       31.3486292412  MEMB      108             0.0000000000
     14329       114  POPS      C31            57.5698110283       18.2625271153       32.2576848933  MEMB      108             0.0000000000
     14330       114  POPS      O32            56.5111887091       17.6792653246       32.0975663037  MEMB      108             0.0000000000
     14331       114  POPS      C32            57.9390039801       19.0850531619       33.4769972256  MEMB      108             0.0000000000
     14332       114  POPS      H2X            59.0231923085       19.3091289325       33.4687579544  MEMB      108             0.0000000000
     14333       114  POPS      H2Y            57.7049725121       18.4830316622       34.3771508066  MEMB      108             0.0000000000
     14334       114  POPS      C23            62.0818464114       18.9869286539       32.2465993290  MEMB      108             0.0000000000
     14335       114  POPS      H3R            62.7215454249       18.1514497069       32.6102943028  MEMB      108             0.0000000000
     14336       114  POPS      H3S            61.0626265450       18.7824560482       32.6380976269  MEMB      108             0.0000000000
     14337       114  POPS      C24            62.6450369093       20.2973308053       32.8061052791  MEMB      108             0.0000000000
     14338       114  POPS      H4R            62.9888374395       20.9405552177       31.9643629382  MEMB      108             0.0000000000
     14339       114  POPS      H4S            63.5307825842       20.0779269765       33.4425038240  MEMB      108             0.0000000000
     14340       114  POPS      C25            61.6150922980       21.0939622852       33.6088463655  MEMB      108             0.0000000000
     14341       114  POPS      H5R            60.7092932057       21.2204557831       32.9752607331  MEMB      108             0.0000000000
     14342       114  POPS      H5S            62.0198381270       22.1081217963       33.8174114397  MEMB      108             0.0000000000
     14343       114  POPS      C26            61.2275334572       20.4262655242       34.9296448847  MEMB      108             0.0000000000
     14344       114  POPS      H6R            62.1235485456       20.2984474913       35.5733116488  MEMB      108             0.0000000000
     14345       114  POPS      H6S            60.8298323620       19.4056795003       34.7413566735  MEMB      108             0.0000000000
     14346       114  POPS      C27            60.1840112080       21.2621427338       35.6719796389  MEMB      108             0.0000000000
     14347       114  POPS      H7R            59.2599154669       21.2844900986       35.0640491383  MEMB      108             0.0000000000
     14348       114  POPS      H7S            60.5649835072       22.3053293814       35.7582299121  MEMB      108             0.0000000000
     14349       114  POPS      C28            59.8703212168       20.7372420768       37.0734782812  MEMB      108             0.0000000000
     14350       114  POPS      H8R            59.3307725323       21.5178416341       37.6528339870  MEMB      108             0.0000000000
     14351       114  POPS      H8S            60.8489320425       20.5924815327       37.5777992687  MEMB      108             0.0000000000
     14352       114  POPS      C29            59.0374164115       19.4840098995       37.0063493457  MEMB      108             0.0000000000
     14353       114  POPS      H91            57.9782521807       19.6514203724       36.7536482107  MEMB      108             0.0000000000
     14354       114  POPS      C210           59.4659206399       18.2245819696       37.1931554203  MEMB      108             0.0000000000
     14355       114  POPS      H101           58.7309980469       17.4156258727       37.0950627249  MEMB      108             0.0000000000
     14356       114  POPS      C211           60.8746802298       17.7820936808       37.5131070289  MEMB      108             0.0000000000
     14357       114  POPS      H11R           61.5908769324       18.6327318405       37.4941651415  MEMB      108             0.0000000000
     14358       114  POPS      H11S           61.2336656713       17.0764139404       36.7289074597  MEMB      108             0.0000000000
     14359       114  POPS      C212           61.0111655623       17.0736011525       38.8788032693  MEMB      108             0.0000000000
     14360       114  POPS      H12R           62.0921006476       16.8973240487       39.0535642540  MEMB      108             0.0000000000
     14361       114  POPS      H12S           60.5355330884       16.0743039398       38.8240693973  MEMB      108             0.0000000000
     14362       114  POPS      C213           60.4333143081       17.8248568180       40.0948543896  MEMB      108             0.0000000000
     14363       114  POPS      H13R           60.5925834121       17.2088488623       41.0067366279  MEMB      108             0.0000000000
     14364       114  POPS      H13S           59.3354711791       17.9469007538       39.9661303170  MEMB      108             0.0000000000
     14365       114  POPS      C214           61.0663965604       19.2000168411       40.3272508836  MEMB      108             0.0000000000
     14366       114  POPS      H14R           60.9358232612       19.8038149260       39.4120120073  MEMB      108             0.0000000000
     14367       114  POPS      H14S           62.1561176573       19.0975008593       40.5027290134  MEMB      108             0.0000000000
     14368       114  POPS      C215           60.4447915955       19.9735535279       41.4945139055  MEMB      108             0.0000000000
     14369       114  POPS      H15R           60.5082313487       19.3420914619       42.4051196280  MEMB      108             0.0000000000
     14370       114  POPS      H15S           59.3695973892       20.1521069112       41.2750047116  MEMB      108             0.0000000000
     14371       114  POPS      C216           61.1251165226       21.3233481308       41.7784603669  MEMB      108             0.0000000000
     14372       114  POPS      H16R           62.1754953201       21.1565849208       42.0711453253  MEMB      108             0.0000000000
     14373       114  POPS      H16S           60.6241682090       21.7971219073       42.6479501795  MEMB      108             0.0000000000
     14374       114  POPS      C217           61.1222696832       22.2933980051       40.5939072650  MEMB      108             0.0000000000
     14375       114  POPS      H17R           61.0058983133       23.3328532411       40.9819615762  MEMB      108             0.0000000000
     14376       114  POPS      H17S           60.2404829281       22.0790959681       39.9494247379  MEMB      108             0.0000000000
     14377       114  POPS      C218           62.4059268611       22.2409258184       39.7665537281  MEMB      108             0.0000000000
     14378       114  POPS      H18R           62.2896239057       22.8829058598       38.8726245381  MEMB      108             0.0000000000
     14379       114  POPS      H18S           62.6294443132       21.2131806909       39.4124289501  MEMB      108             0.0000000000
     14380       114  POPS      H18T           63.2748219854       22.5937320150       40.3609820162  MEMB      108             0.0000000000
     14381       114  POPS      C33            57.1301019738       20.3977339722       33.4644305791  MEMB      108             0.0000000000
     14382       114  POPS      H3X            57.2265107044       20.8939734811       34.4559299401  MEMB      108             0.0000000000
     14383       114  POPS      H3Y            56.0580596022       20.1636793787       33.3090547134  MEMB      108             0.0000000000
     14384       114  POPS      C34            57.5950346858       21.3694100786       32.3703171645  MEMB      108             0.0000000000
     14385       114  POPS      H4X            57.5757727472       20.8668708679       31.3774656483  MEMB      108             0.0000000000
     14386       114  POPS      H4Y            58.6528873729       21.6500907385       32.5586703567  MEMB      108             0.0000000000
     14387       114  POPS      C35            56.7440133657       22.6425498421       32.2724591951  MEMB      108             0.0000000000
     14388       114  POPS      H5X            55.7263605359       22.3677626740       31.9107365191  MEMB      108             0.0000000000
     14389       114  POPS      H5Y            57.2011315439       23.3121830654       31.5071717158  MEMB      108             0.0000000000
     14390       114  POPS      C36            56.6035545093       23.4375257994       33.5812231278  MEMB      108             0.0000000000
     14391       114  POPS      H6X            56.0249638681       22.8470281254       34.3232467190  MEMB      108             0.0000000000
     14392       114  POPS      H6Y            56.0282681583       24.3565353209       33.3455862130  MEMB      108             0.0000000000
     14393       114  POPS      C37            57.9511803847       23.8649811171       34.1765084689  MEMB      108             0.0000000000
     14394       114  POPS      H7X            58.4711991448       24.4999106292       33.4228598082  MEMB      108             0.0000000000
     14395       114  POPS      H7Y            58.5878113813       22.9798274689       34.3317788938  MEMB      108             0.0000000000
     14396       114  POPS      C38            57.8624817818       24.6493856247       35.4956595837  MEMB      108             0.0000000000
     14397       114  POPS      H8X            57.2897364567       25.5754165683       35.2954865824  MEMB      108             0.0000000000
     14398       114  POPS      H8Y            58.8949846985       24.9602678196       35.7760624111  MEMB      108             0.0000000000
     14399       114  POPS      C39            57.2575194580       23.8964915291       36.6988637115  MEMB      108             0.0000000000
     14400       114  POPS      H9X            57.8479231596       22.9697501177       36.8644471624  MEMB      108             0.0000000000
     14401       114  POPS      H9Y            56.2078300515       23.5960884146       36.4914400948  MEMB      108             0.0000000000
     14402       114  POPS      C310           57.3077544010       24.7620770654       37.9710263582  MEMB      108             0.0000000000
     14403       114  POPS      H10X           56.5350395510       25.5570649944       37.9089585774  MEMB      108             0.0000000000
     14404       114  POPS      H10Y           58.2999342797       25.2681887304       38.0000543859  MEMB      108             0.0000000000
     14405       114  POPS      C311           57.1319478969       24.0210545067       39.3064165869  MEMB      108             0.0000000000
     14406       114  POPS      H11X           57.7450690939       23.0922232236       39.3031997924  MEMB      108             0.0000000000
     14407       114  POPS      H11Y           56.0659347405       23.7333890784       39.4388385599  MEMB      108             0.0000000000
     14408       114  POPS      C312           57.5950329336       24.9165411420       40.4711578129  MEMB      108             0.0000000000
     14409       114  POPS      H12X           57.1622420973       25.9329508408       40.3410751177  MEMB      108             0.0000000000
     14410       114  POPS      H12Y           58.7011583468       25.0298771690       40.4061489774  MEMB      108             0.0000000000
     14411       114  POPS      C313           57.2380211630       24.4163920286       41.8800384791  MEMB      108             0.0000000000
     14412       114  POPS      H13X           56.1349737439       24.4021747767       42.0182838357  MEMB      108             0.0000000000
     14413       114  POPS      H13Y           57.6511193686       25.1584636194       42.6020071489  MEMB      108             0.0000000000
     14414       114  POPS      C314           57.8253133599       23.0373012164       42.2132303435  MEMB      108             0.0000000000
     14415       114  POPS      H14X           58.6580542571       22.8289361819       41.5081188367  MEMB      108             0.0000000000
     14416       114  POPS      H14Y           57.0545483969       22.2527964624       42.0514570033  MEMB      108             0.0000000000
     14417       114  POPS      C315           58.3810080178       22.9372346350       43.6416435210  MEMB      108             0.0000000000
     14418       114  POPS      H15X           59.2398692607       23.6396863158       43.7323555497  MEMB      108             0.0000000000
     14419       114  POPS      H15Y           58.7836158169       21.9099596786       43.7916393989  MEMB      108             0.0000000000
     14420       114  POPS      C316           57.3639457306       23.2346405668       44.7445498733  MEMB      108             0.0000000000
     14421       114  POPS      H16X           57.0046790815       24.2829676330       44.6869384362  MEMB      108             0.0000000000
     14422       114  POPS      H16Y           57.8166006882       23.0744028772       45.7466447641  MEMB      108             0.0000000000
     14423       114  POPS      H16Z           56.4907565734       22.5602407343       44.6491520414  MEMB      108             0.0000000000
     14424       115  POPC      N               2.2385719254       33.7608586099       24.7208627868  MEMB      109             0.0000000000
     14425       115  POPC      C12             2.7272126593       34.7599917881       25.7658778146  MEMB      109             0.0000000000
     14426       115  POPC      H12A            2.2183653495       35.7056777057       25.6764075196  MEMB      109             0.0000000000
     14427       115  POPC      H12B            3.7769446415       34.9895519060       25.5533789704  MEMB      109             0.0000000000
     14428       115  POPC      C13             0.7507303146       33.5799373185       24.7248809553  MEMB      109             0.0000000000
     14429       115  POPC      H13A            0.2175296892       34.4443150643       24.3496936226  MEMB      109             0.0000000000
     14430       115  POPC      H13B            0.4449431988       32.7536335619       24.0855041752  MEMB      109             0.0000000000
     14431       115  POPC      H13C            0.3782513676       33.3716473903       25.7215806469  MEMB      109             0.0000000000
     14432       115  POPC      C14             2.6876810162       34.1866698753       23.3568360869  MEMB      109             0.0000000000
     14433       115  POPC      H14A            3.7679478290       34.2840204353       23.3187378785  MEMB      109             0.0000000000
     14434       115  POPC      H14B            2.4378802715       33.4314253565       22.6103942114  MEMB      109             0.0000000000
     14435       115  POPC      H14C            2.2286579236       35.1202897458       23.0574980398  MEMB      109             0.0000000000
     14436       115  POPC      C15             2.8968878088       32.4543391670       25.0501413629  MEMB      109             0.0000000000
     14437       115  POPC      H15A            2.6103668144       32.1341700112       26.0524580824  MEMB      109             0.0000000000
     14438       115  POPC      H15B            3.9741964706       32.5882800293       25.1210647046  MEMB      109             0.0000000000
     14439       115  POPC      H15C            2.6866137884       31.6733033441       24.3422669990  MEMB      109             0.0000000000
     14440       115  POPC      C11             2.7233000301       34.2811872115       27.2433064934  MEMB      109             0.0000000000
     14441       115  POPC      H11A            1.8131836859       33.6747821071       27.4564351774  MEMB      109             0.0000000000
     14442       115  POPC      H11B            2.6601443618       35.1648768572       27.9191115921  MEMB      109             0.0000000000
     14443       115  POPC      P               5.3170025037       34.2122692878       27.4985691377  MEMB      109             0.0000000000
     14444       115  POPC      O13             5.8505260091       34.0567005760       26.1199282253  MEMB      109             0.0000000000
     14445       115  POPC      O14             6.1805832905       33.7750817216       28.6108576186  MEMB      109             0.0000000000
     14446       115  POPC      O12             3.8950010351       33.5049516691       27.5307446128  MEMB      109             0.0000000000
     14447       115  POPC      O11             4.9234986288       35.7399614215       27.6791109537  MEMB      109             0.0000000000
     14448       115  POPC      C1              5.5778785731       36.6086409185       28.6053568749  MEMB      109             0.0000000000
     14449       115  POPC      HA              5.6934463444       37.6090633976       28.1249109023  MEMB      109             0.0000000000
     14450       115  POPC      HB              6.6168078778       36.2775561416       28.8399039141  MEMB      109             0.0000000000
     14451       115  POPC      C2              4.8172405655       36.8472151956       29.9642156795  MEMB      109             0.0000000000
     14452       115  POPC      HS              5.4014817073       37.6387324095       30.5014027124  MEMB      109             0.0000000000
     14453       115  POPC      O21             4.6786972462       35.6616648152       30.7650985195  MEMB      109             0.0000000000
     14454       115  POPC      C21             5.8051138812       35.3933102480       31.4006452517  MEMB      109             0.0000000000
     14455       115  POPC      O22             6.8335039169       36.0382033682       31.3230266646  MEMB      109             0.0000000000
     14456       115  POPC      C22             5.6876456400       34.2114264105       32.3349342313  MEMB      109             0.0000000000
     14457       115  POPC      H2R             6.5559908169       34.2480370163       33.0267071472  MEMB      109             0.0000000000
     14458       115  POPC      H2S             5.7572790820       33.2938551206       31.7110670862  MEMB      109             0.0000000000
     14459       115  POPC      C3              3.3920783079       37.4599774652       29.8247800011  MEMB      109             0.0000000000
     14460       115  POPC      HX              3.4181695028       38.0305358448       28.8819389071  MEMB      109             0.0000000000
     14461       115  POPC      HY              3.3197549884       38.1757042386       30.6692123753  MEMB      109             0.0000000000
     14462       115  POPC      O31             2.2713375404       36.5416437869       29.8029906840  MEMB      109             0.0000000000
     14463       115  POPC      C31             1.6558562588       36.3085877145       30.9687314448  MEMB      109             0.0000000000
     14464       115  POPC      O32             1.8334576207       36.9362320325       31.9994380373  MEMB      109             0.0000000000
     14465       115  POPC      C32             0.6253775082       35.2091755777       30.7374186056  MEMB      109             0.0000000000
     14466       115  POPC      H2X             0.2036751112       35.3340566071       29.7181060587  MEMB      109             0.0000000000
     14467       115  POPC      H2Y            -0.1948451319       35.3441991519       31.4693953110  MEMB      109             0.0000000000
     14468       115  POPC      C23             4.3770117245       34.1962361849       33.1431966785  MEMB      109             0.0000000000
     14469       115  POPC      H3R             4.4219023512       33.2673716481       33.7517914804  MEMB      109             0.0000000000
     14470       115  POPC      H3S             3.5275013788       34.1003475293       32.4352577271  MEMB      109             0.0000000000
     14471       115  POPC      C24             4.0809870314       35.3915076347       34.0704827883  MEMB      109             0.0000000000
     14472       115  POPC      H4R             3.1200513286       35.1614159016       34.5885907082  MEMB      109             0.0000000000
     14473       115  POPC      H4S             3.9022569999       36.3070369580       33.4625647170  MEMB      109             0.0000000000
     14474       115  POPC      C25             5.1499808558       35.6802343779       35.1361499341  MEMB      109             0.0000000000
     14475       115  POPC      H5R             5.8771813866       36.4142199877       34.7217579389  MEMB      109             0.0000000000
     14476       115  POPC      H5S             5.7144831846       34.7452516887       35.3492510097  MEMB      109             0.0000000000
     14477       115  POPC      C26             4.6059833988       36.2139187216       36.4826132546  MEMB      109             0.0000000000
     14478       115  POPC      H6R             5.4491424314       36.7080987555       37.0120586550  MEMB      109             0.0000000000
     14479       115  POPC      H6S             4.2787312404       35.3638889681       37.1206002330  MEMB      109             0.0000000000
     14480       115  POPC      C27             3.4425254878       37.2156753461       36.3782686752  MEMB      109             0.0000000000
     14481       115  POPC      H7R             2.4749842106       36.6660667740       36.4098942890  MEMB      109             0.0000000000
     14482       115  POPC      H7S             3.5043786489       37.7266561065       35.3895392687  MEMB      109             0.0000000000
     14483       115  POPC      C28             3.4655616630       38.3254964537       37.4582973335  MEMB      109             0.0000000000
     14484       115  POPC      H8R             2.5935039637       38.9900222415       37.2588515737  MEMB      109             0.0000000000
     14485       115  POPC      H8S             4.3664511674       38.9426597711       37.2584812718  MEMB      109             0.0000000000
     14486       115  POPC      C29             3.4277703246       37.8867776754       38.9058275209  MEMB      109             0.0000000000
     14487       115  POPC      H91             2.4581064434       37.4782407031       39.2320495360  MEMB      109             0.0000000000
     14488       115  POPC      C210            4.4469141094       37.9216932078       39.7955973859  MEMB      109             0.0000000000
     14489       115  POPC      H101            4.2533073878       37.6069004017       40.8284993276  MEMB      109             0.0000000000
     14490       115  POPC      C211            5.8582013736       38.4026463813       39.5452479462  MEMB      109             0.0000000000
     14491       115  POPC      H11R            5.9097656187       39.0055302522       38.6151467917  MEMB      109             0.0000000000
     14492       115  POPC      H11S            6.4752253144       37.5087514345       39.3602735446  MEMB      109             0.0000000000
     14493       115  POPC      C212            6.6489416426       39.1898685109       40.6231576604  MEMB      109             0.0000000000
     14494       115  POPC      H12R            6.1658069594       40.1549719905       40.8650570855  MEMB      109             0.0000000000
     14495       115  POPC      H12S            7.6338771655       39.4394877043       40.1619018780  MEMB      109             0.0000000000
     14496       115  POPC      C213            6.9340026065       38.4145180791       41.9211297053  MEMB      109             0.0000000000
     14497       115  POPC      H13R            7.1369923597       37.3546792469       41.6641872856  MEMB      109             0.0000000000
     14498       115  POPC      H13S            6.0216842444       38.4261219033       42.5522739261  MEMB      109             0.0000000000
     14499       115  POPC      C214            8.1536044623       38.9762969495       42.6849471542  MEMB      109             0.0000000000
     14500       115  POPC      H14R            8.2083256957       40.0732849109       42.4960031431  MEMB      109             0.0000000000
     14501       115  POPC      H14S            9.0748122784       38.5232611586       42.2554032008  MEMB      109             0.0000000000
     14502       115  POPC      C215            8.1580026493       38.7753991897       44.2158574566  MEMB      109             0.0000000000
     14503       115  POPC      H15R            7.4580976029       39.5107496423       44.6671385165  MEMB      109             0.0000000000
     14504       115  POPC      H15S            9.1697124780       39.0209724329       44.6089495929  MEMB      109             0.0000000000
     14505       115  POPC      C216            7.7493516241       37.3804101084       44.7156021237  MEMB      109             0.0000000000
     14506       115  POPC      H16R            8.4950157620       36.6308737336       44.3806978478  MEMB      109             0.0000000000
     14507       115  POPC      H16S            6.7665842262       37.1114088447       44.2717393746  MEMB      109             0.0000000000
     14508       115  POPC      C217            7.6231619786       37.3112120330       46.2463685239  MEMB      109             0.0000000000
     14509       115  POPC      H17R            7.1822374635       38.2631824978       46.6177516975  MEMB      109             0.0000000000
     14510       115  POPC      H17S            8.6407346160       37.2358056035       46.6898325086  MEMB      109             0.0000000000
     14511       115  POPC      C218            6.7449736270       36.1609944242       46.7444439618  MEMB      109             0.0000000000
     14512       115  POPC      H18R            5.7084781674       36.2732738393       46.3625039424  MEMB      109             0.0000000000
     14513       115  POPC      H18S            6.7041370867       36.1556340995       47.8543774701  MEMB      109             0.0000000000
     14514       115  POPC      H18T            7.1437690198       35.1824242442       46.4013978345  MEMB      109             0.0000000000
     14515       115  POPC      C33             1.2238873149       33.7915529495       30.8752460884  MEMB      109             0.0000000000
     14516       115  POPC      H3X             2.3135578976       33.7882282435       30.6422613606  MEMB      109             0.0000000000
     14517       115  POPC      H3Y             0.7400019488       33.1272490505       30.1233359426  MEMB      109             0.0000000000
     14518       115  POPC      C34             0.9497528044       33.1912494622       32.2622463234  MEMB      109             0.0000000000
     14519       115  POPC      H4X            -0.1458991617       33.0173593427       32.3610109530  MEMB      109             0.0000000000
     14520       115  POPC      H4Y             1.2462906008       33.9193462394       33.0506784597  MEMB      109             0.0000000000
     14521       115  POPC      C35             1.6938933610       31.8701964411       32.4869517399  MEMB      109             0.0000000000
     14522       115  POPC      H5X             2.7816634349       32.0730387958       32.5781420027  MEMB      109             0.0000000000
     14523       115  POPC      H5Y             1.5687346978       31.2339243683       31.5797511334  MEMB      109             0.0000000000
     14524       115  POPC      C36             1.2140525458       31.0585304619       33.7042929996  MEMB      109             0.0000000000
     14525       115  POPC      H6X             1.9286507328       30.2199305140       33.8659241971  MEMB      109             0.0000000000
     14526       115  POPC      H6Y             0.2350370978       30.6002985681       33.4502415556  MEMB      109             0.0000000000
     14527       115  POPC      C37             1.0268690501       31.8210308175       35.0299515992  MEMB      109             0.0000000000
     14528       115  POPC      H7X             0.5460257630       31.1352842146       35.7588278990  MEMB      109             0.0000000000
     14529       115  POPC      H7Y             0.3363639282       32.6785982540       34.8805873831  MEMB      109             0.0000000000
     14530       115  POPC      C38             2.3368644228       32.3027377827       35.6563540351  MEMB      109             0.0000000000
     14531       115  POPC      H8X             2.8455045350       32.9401207284       34.9117027553  MEMB      109             0.0000000000
     14532       115  POPC      H8Y             2.9927312400       31.4292591166       35.8691148951  MEMB      109             0.0000000000
     14533       115  POPC      C39             2.1653382330       33.1431631425       36.9306070309  MEMB      109             0.0000000000
     14534       115  POPC      H9X             1.6576100132       34.1015014736       36.6764576950  MEMB      109             0.0000000000
     14535       115  POPC      H9Y             3.1848047824       33.4002154846       37.2905315758  MEMB      109             0.0000000000
     14536       115  POPC      C310            1.3763307571       32.4354675915       38.0436566185  MEMB      109             0.0000000000
     14537       115  POPC      H10X            1.6771833677       31.3658576990       38.0962031721  MEMB      109             0.0000000000
     14538       115  POPC      H10Y            0.2963491662       32.4758941901       37.7742930359  MEMB      109             0.0000000000
     14539       115  POPC      C311            1.5687055183       33.0721929194       39.4276061329  MEMB      109             0.0000000000
     14540       115  POPC      H11X            0.7852131648       32.6986466877       40.1250496909  MEMB      109             0.0000000000
     14541       115  POPC      H11Y            1.4283557498       34.1722170801       39.3282307360  MEMB      109             0.0000000000
     14542       115  POPC      C312            2.9509825671       32.7810258438       40.0338713980  MEMB      109             0.0000000000
     14543       115  POPC      H12X            3.7237829318       33.0017696544       39.2642977885  MEMB      109             0.0000000000
     14544       115  POPC      H12Y            3.0407831303       31.7006266843       40.2826544726  MEMB      109             0.0000000000
     14545       115  POPC      C313            3.2616260193       33.6423013252       41.2679922746  MEMB      109             0.0000000000
     14546       115  POPC      H13X            2.9370876718       33.1203613549       42.1946067231  MEMB      109             0.0000000000
     14547       115  POPC      H13Y            2.6708739159       34.5839219327       41.1946927785  MEMB      109             0.0000000000
     14548       115  POPC      C314            4.7475524385       34.0282004808       41.3369073693  MEMB      109             0.0000000000
     14549       115  POPC      H14X            5.0510412044       34.3800949140       40.3222408232  MEMB      109             0.0000000000
     14550       115  POPC      H14Y            5.3657426599       33.1377018037       41.5721718375  MEMB      109             0.0000000000
     14551       115  POPC      C315            5.0468868953       35.1719950029       42.3156862312  MEMB      109             0.0000000000
     14552       115  POPC      H15X            4.3961871936       36.0261234710       42.0408995068  MEMB      109             0.0000000000
     14553       115  POPC      H15Y            6.1011640738       35.4974784284       42.1691034181  MEMB      109             0.0000000000
     14554       115  POPC      C316            4.8301494942       34.8654051643       43.7961258509  MEMB      109             0.0000000000
     14555       115  POPC      H16X            5.6195717773       34.1838039598       44.1743381749  MEMB      109             0.0000000000
     14556       115  POPC      H16Y            3.8366108235       34.4008485404       43.9657625711  MEMB      109             0.0000000000
     14557       115  POPC      H16Z            4.8766596461       35.8047423855       44.3862039482  MEMB      109             0.0000000000
     14558       116  POPC      N              27.3506346598       60.9325455586       25.9557689343  MEMB      110             0.0000000000
     14559       116  POPC      C12            27.9566561910       61.6315791690       27.1679028019  MEMB      110             0.0000000000
     14560       116  POPC      H12A           28.1913851752       60.9202727667       27.9561436650  MEMB      110             0.0000000000
     14561       116  POPC      H12B           27.1983941809       62.2805175107       27.6183362043  MEMB      110             0.0000000000
     14562       116  POPC      C13            26.3353624952       59.9118000469       26.3356970775  MEMB      110             0.0000000000
     14563       116  POPC      H13A           25.7144750034       60.2515050007       27.1676085181  MEMB      110             0.0000000000
     14564       116  POPC      H13B           25.6982146028       59.6617431899       25.4954049714  MEMB      110             0.0000000000
     14565       116  POPC      H13C           26.8004269669       59.0108023039       26.7147781527  MEMB      110             0.0000000000
     14566       116  POPC      C14            26.6808514301       61.9558875287       25.0941846414  MEMB      110             0.0000000000
     14567       116  POPC      H14A           26.2585124848       61.5333427550       24.1948197979  MEMB      110             0.0000000000
     14568       116  POPC      H14B           25.8813739756       62.4869195082       25.6017151553  MEMB      110             0.0000000000
     14569       116  POPC      H14C           27.4143280411       62.7305680118       24.8537705336  MEMB      110             0.0000000000
     14570       116  POPC      C15            28.4228088778       60.2742856177       25.1496576711  MEMB      110             0.0000000000
     14571       116  POPC      H15A           29.1699735543       61.0276222671       24.9105228167  MEMB      110             0.0000000000
     14572       116  POPC      H15B           27.9983592807       59.8761494164       24.2372298053  MEMB      110             0.0000000000
     14573       116  POPC      H15C           28.9040868465       59.4765724647       25.7012289277  MEMB      110             0.0000000000
     14574       116  POPC      C11            29.1834765828       62.5665885396       26.9700897307  MEMB      110             0.0000000000
     14575       116  POPC      H11A           30.0499449670       61.9849319748       26.5876377817  MEMB      110             0.0000000000
     14576       116  POPC      H11B           29.4994373003       62.9685771982       27.9623829144  MEMB      110             0.0000000000
     14577       116  POPC      P              28.0442404761       64.8927526736       26.5027101624  MEMB      110             0.0000000000
     14578       116  POPC      O13            27.2634318116       65.2417657371       25.2899487818  MEMB      110             0.0000000000
     14579       116  POPC      O14            28.8916218065       65.9225869570       27.1209023622  MEMB      110             0.0000000000
     14580       116  POPC      O12            28.9099051881       63.6329061709       26.0741539725  MEMB      110             0.0000000000
     14581       116  POPC      O11            27.0743853808       64.2246578898       27.5662999435  MEMB      110             0.0000000000
     14582       116  POPC      C1             25.6508539511       64.3329654413       27.5090428335  MEMB      110             0.0000000000
     14583       116  POPC      HA             25.2198231860       63.5705642424       26.8285472081  MEMB      110             0.0000000000
     14584       116  POPC      HB             25.3343323484       65.3210506147       27.1006107935  MEMB      110             0.0000000000
     14585       116  POPC      C2             24.9972621760       64.1250903750       28.9172273699  MEMB      110             0.0000000000
     14586       116  POPC      HS             23.9290986722       64.4340042157       28.8372433007  MEMB      110             0.0000000000
     14587       116  POPC      O21            25.6339518118       64.8971600946       29.9452681284  MEMB      110             0.0000000000
     14588       116  POPC      C21            25.5732150487       66.2062248177       29.8391154046  MEMB      110             0.0000000000
     14589       116  POPC      O22            25.2199324127       66.8406155124       28.8665660549  MEMB      110             0.0000000000
     14590       116  POPC      C22            26.0368563808       66.7626451763       31.2032958631  MEMB      110             0.0000000000
     14591       116  POPC      H2R            26.9165371004       67.3931723564       31.0047125336  MEMB      110             0.0000000000
     14592       116  POPC      H2S            26.3903146086       65.9201094487       31.8319674710  MEMB      110             0.0000000000
     14593       116  POPC      C3             24.9999098187       62.6243987790       29.3624258125  MEMB      110             0.0000000000
     14594       116  POPC      HX             25.5020068364       62.0139535145       28.5787278899  MEMB      110             0.0000000000
     14595       116  POPC      HY             23.9392226822       62.2858619801       29.3908461109  MEMB      110             0.0000000000
     14596       116  POPC      O31            25.5527588629       62.4416558825       30.6898277913  MEMB      110             0.0000000000
     14597       116  POPC      C31            26.7532401981       61.8871505478       30.7570557508  MEMB      110             0.0000000000
     14598       116  POPC      O32            27.3492638285       61.3435725311       29.8449825532  MEMB      110             0.0000000000
     14599       116  POPC      C32            27.2760860608       62.0163322858       32.1833222887  MEMB      110             0.0000000000
     14600       116  POPC      H2X            26.6044036965       61.4185281704       32.8274238660  MEMB      110             0.0000000000
     14601       116  POPC      H2Y            27.1902325983       63.0848054130       32.4680297289  MEMB      110             0.0000000000
     14602       116  POPC      C23            25.0097745220       67.6084480480       32.0033127469  MEMB      110             0.0000000000
     14603       116  POPC      H3R            24.1545584616       67.9306682098       31.3680347777  MEMB      110             0.0000000000
     14604       116  POPC      H3S            25.5360130247       68.5348561719       32.3315352971  MEMB      110             0.0000000000
     14605       116  POPC      C24            24.5207507297       66.8931425954       33.2684317716  MEMB      110             0.0000000000
     14606       116  POPC      H4R            25.3232327909       66.2113608959       33.6228139954  MEMB      110             0.0000000000
     14607       116  POPC      H4S            23.6390893202       66.2623808186       33.0162809255  MEMB      110             0.0000000000
     14608       116  POPC      C25            24.1785614753       67.8459513527       34.4245321292  MEMB      110             0.0000000000
     14609       116  POPC      H5R            23.2839087726       68.4189747934       34.1097875274  MEMB      110             0.0000000000
     14610       116  POPC      H5S            25.0003660705       68.5721148831       34.6009108989  MEMB      110             0.0000000000
     14611       116  POPC      C26            23.8653984620       67.0834985774       35.7212968886  MEMB      110             0.0000000000
     14612       116  POPC      H6R            23.2285078074       66.2207259962       35.4368336247  MEMB      110             0.0000000000
     14613       116  POPC      H6S            23.2749807900       67.7336017176       36.4036610536  MEMB      110             0.0000000000
     14614       116  POPC      C27            25.1222628650       66.6011637977       36.4573113517  MEMB      110             0.0000000000
     14615       116  POPC      H7R            25.5379577444       67.4682401261       37.0208832643  MEMB      110             0.0000000000
     14616       116  POPC      H7S            25.8864319007       66.2866886341       35.7161088377  MEMB      110             0.0000000000
     14617       116  POPC      C28            24.8916023321       65.4317432652       37.4313458144  MEMB      110             0.0000000000
     14618       116  POPC      H8R            23.9576494256       65.6285061919       37.9900321176  MEMB      110             0.0000000000
     14619       116  POPC      H8S            25.7193579914       65.4527457022       38.1767657823  MEMB      110             0.0000000000
     14620       116  POPC      C29            24.8328646913       64.0856733954       36.7459992882  MEMB      110             0.0000000000
     14621       116  POPC      H91            24.5774834492       64.1057630532       35.6726316215  MEMB      110             0.0000000000
     14622       116  POPC      C210           25.0584209090       62.9027804118       37.3494991370  MEMB      110             0.0000000000
     14623       116  POPC      H101           25.0156237833       61.9731955939       36.7611635311  MEMB      110             0.0000000000
     14624       116  POPC      C211           25.4028022658       62.7317739035       38.8077196353  MEMB      110             0.0000000000
     14625       116  POPC      H11R           24.4810927970       62.8821929372       39.4107882358  MEMB      110             0.0000000000
     14626       116  POPC      H11S           26.1058943646       63.5189433561       39.1371589538  MEMB      110             0.0000000000
     14627       116  POPC      C212           26.0075167889       61.3589620707       39.1840167179  MEMB      110             0.0000000000
     14628       116  POPC      H12R           25.5567995939       60.5580982745       38.5587376240  MEMB      110             0.0000000000
     14629       116  POPC      H12S           25.7406332922       61.1306806352       40.2405728790  MEMB      110             0.0000000000
     14630       116  POPC      C213           27.5407036704       61.2932267563       39.0876825667  MEMB      110             0.0000000000
     14631       116  POPC      H13R           27.9960920101       61.9023653289       39.8948423021  MEMB      110             0.0000000000
     14632       116  POPC      H13S           27.8587053813       61.7110372722       38.1117942387  MEMB      110             0.0000000000
     14633       116  POPC      C214           28.0774159041       59.8645911815       39.2000343320  MEMB      110             0.0000000000
     14634       116  POPC      H14R           27.8649863811       59.3828161550       38.2216326091  MEMB      110             0.0000000000
     14635       116  POPC      H14S           27.5255892486       59.3385855841       40.0058004730  MEMB      110             0.0000000000
     14636       116  POPC      C215           29.5858846474       59.7272737039       39.4244486997  MEMB      110             0.0000000000
     14637       116  POPC      H15R           30.0901138411       60.4520803833       38.7508816018  MEMB      110             0.0000000000
     14638       116  POPC      H15S           29.9092389335       58.7066027958       39.1149102877  MEMB      110             0.0000000000
     14639       116  POPC      C216           30.0451146695       59.9443201673       40.8722503445  MEMB      110             0.0000000000
     14640       116  POPC      H16R           29.5745455624       60.8550140478       41.2994239732  MEMB      110             0.0000000000
     14641       116  POPC      H16S           31.1438332496       60.1040492687       40.8428046629  MEMB      110             0.0000000000
     14642       116  POPC      C217           29.8221139805       58.7433013355       41.7957284620  MEMB      110             0.0000000000
     14643       116  POPC      H17R           30.1831392509       57.8269641508       41.2750870666  MEMB      110             0.0000000000
     14644       116  POPC      H17S           28.7358823344       58.6248227641       41.9902846576  MEMB      110             0.0000000000
     14645       116  POPC      C218           30.5605746034       58.8654810008       43.1277691698  MEMB      110             0.0000000000
     14646       116  POPC      H18R           31.6215168716       59.1413831171       42.9558345136  MEMB      110             0.0000000000
     14647       116  POPC      H18S           30.0956754365       59.6404733594       43.7720803823  MEMB      110             0.0000000000
     14648       116  POPC      H18T           30.5449837657       57.9005231544       43.6733235197  MEMB      110             0.0000000000
     14649       116  POPC      C33            28.7364199986       61.5257668666       32.3341653578  MEMB      110             0.0000000000
     14650       116  POPC      H3X            29.4070786833       62.2093033781       31.7637297414  MEMB      110             0.0000000000
     14651       116  POPC      H3Y            28.8470727743       60.5158328586       31.8899033816  MEMB      110             0.0000000000
     14652       116  POPC      C34            29.1994706903       61.4537523603       33.7928376033  MEMB      110             0.0000000000
     14653       116  POPC      H4X            30.2465995461       61.0787474640       33.8335371449  MEMB      110             0.0000000000
     14654       116  POPC      H4Y            28.5571743450       60.7339439945       34.3512242238  MEMB      110             0.0000000000
     14655       116  POPC      C35            29.1206923344       62.8111727081       34.4914913803  MEMB      110             0.0000000000
     14656       116  POPC      H5X            28.0695616136       63.1800062192       34.4441142739  MEMB      110             0.0000000000
     14657       116  POPC      H5Y            29.7556757976       63.5527519632       33.9552182795  MEMB      110             0.0000000000
     14658       116  POPC      C36            29.5199064176       62.7443432991       35.9654038355  MEMB      110             0.0000000000
     14659       116  POPC      H6X            30.6232375768       62.8446712658       36.0591872100  MEMB      110             0.0000000000
     14660       116  POPC      H6Y            29.2371828332       61.7580319590       36.3963149078  MEMB      110             0.0000000000
     14661       116  POPC      C37            28.8216333747       63.8469491014       36.7623812800  MEMB      110             0.0000000000
     14662       116  POPC      H7X            27.7432755564       63.6037967788       36.8732097928  MEMB      110             0.0000000000
     14663       116  POPC      H7Y            28.8767143741       64.7939815291       36.1815806644  MEMB      110             0.0000000000
     14664       116  POPC      C38            29.4359248110       64.0788013151       38.1446256793  MEMB      110             0.0000000000
     14665       116  POPC      H8X            30.4997844523       64.3528145778       38.0084348771  MEMB      110             0.0000000000
     14666       116  POPC      H8Y            29.4372189395       63.1501304904       38.7489026808  MEMB      110             0.0000000000
     14667       116  POPC      C39            28.6748269099       65.1749977667       38.8933863936  MEMB      110             0.0000000000
     14668       116  POPC      H9X            27.7335338491       64.7401555622       39.2788723019  MEMB      110             0.0000000000
     14669       116  POPC      H9Y            28.3741988260       65.9763319758       38.1929210558  MEMB      110             0.0000000000
     14670       116  POPC      C310           29.4544650054       65.8142444545       40.0388802710  MEMB      110             0.0000000000
     14671       116  POPC      H10X           29.8442488102       66.7954535301       39.6890846894  MEMB      110             0.0000000000
     14672       116  POPC      H10Y           30.3304755358       65.1868839318       40.3133791355  MEMB      110             0.0000000000
     14673       116  POPC      C311           28.5816917221       66.0449088337       41.2724480451  MEMB      110             0.0000000000
     14674       116  POPC      H11X           27.6047060301       66.4873366080       40.9870873767  MEMB      110             0.0000000000
     14675       116  POPC      H11Y           29.1122222277       66.7881659513       41.9086913584  MEMB      110             0.0000000000
     14676       116  POPC      C312           28.4187340472       64.7837054492       42.1300313177  MEMB      110             0.0000000000
     14677       116  POPC      H12X           28.4457035925       65.1274856127       43.1782999078  MEMB      110             0.0000000000
     14678       116  POPC      H12Y           29.3030962242       64.1276270303       41.9962928164  MEMB      110             0.0000000000
     14679       116  POPC      C313           27.1474111569       63.9421214623       41.9129787257  MEMB      110             0.0000000000
     14680       116  POPC      H13X           27.1607527912       63.1162796680       42.6574844641  MEMB      110             0.0000000000
     14681       116  POPC      H13Y           27.2034109190       63.4657434382       40.9188761504  MEMB      110             0.0000000000
     14682       116  POPC      C314           25.8162492242       64.7046044774       42.0180230752  MEMB      110             0.0000000000
     14683       116  POPC      H14X           25.3510908513       64.7850709501       41.0102321511  MEMB      110             0.0000000000
     14684       116  POPC      H14Y           26.0345072032       65.7370979514       42.3584867965  MEMB      110             0.0000000000
     14685       116  POPC      C315           24.8119343031       64.0768659573       42.9964575425  MEMB      110             0.0000000000
     14686       116  POPC      H15X           23.9190974613       64.7395740179       43.0713018757  MEMB      110             0.0000000000
     14687       116  POPC      H15Y           25.2688923343       64.0342172072       44.0080587143  MEMB      110             0.0000000000
     14688       116  POPC      C316           24.3602150866       62.6695786372       42.6125404977  MEMB      110             0.0000000000
     14689       116  POPC      H16X           23.7246873585       62.7180483765       41.7051612308  MEMB      110             0.0000000000
     14690       116  POPC      H16Y           23.7686653683       62.2276855771       43.4404876832  MEMB      110             0.0000000000
     14691       116  POPC      H16Z           25.2223745346       61.9981609830       42.4172304715  MEMB      110             0.0000000000
     14692       117  POPS      N              36.5166894423       -0.3731750666       24.3874300083  MEMB      111             0.0000000000
     14693       117  POPS      HN1            36.2034979494       -1.0249164308       23.6336918764  MEMB      111             0.0000000000
     14694       117  POPS      HN2            37.3680412181        0.1442871574       24.0857514502  MEMB      111             0.0000000000
     14695       117  POPS      HN3            36.7759381857       -0.9076718358       25.2458521732  MEMB      111             0.0000000000
     14696       117  POPS      C12            35.4885722124        0.6424465744       24.7323857004  MEMB      111             0.0000000000
     14697       117  POPS      H12A           34.5223534404        0.1756768675       24.7933020345  MEMB      111             0.0000000000
     14698       117  POPS      C13            35.5547195009        1.7666322366       23.6774010446  MEMB      111             0.0000000000
     14699       117  POPS      O13A           36.6972610932        2.2813241696       23.5283420977  MEMB      111             0.0000000000
     14700       117  POPS      O13B           34.5496320632        2.0916879711       22.9792973110  MEMB      111             0.0000000000
     14701       117  POPS      C11            35.8341301946        1.2473041120       26.1125437488  MEMB      111             0.0000000000
     14702       117  POPS      H11A           36.6786615302        1.9565462549       26.0022048946  MEMB      111             0.0000000000
     14703       117  POPS      H11B           36.1992837682        0.4431706929       26.7941208962  MEMB      111             0.0000000000
     14704       117  POPS      P              33.8454760626        1.3870271742       27.8209699402  MEMB      111             0.0000000000
     14705       117  POPS      O13            34.6695113072        0.3501681635       28.4948615535  MEMB      111             0.0000000000
     14706       117  POPS      O14            32.5171389902        1.0159173487       27.3032228458  MEMB      111             0.0000000000
     14707       117  POPS      O12            34.7094966010        1.9530016668       26.6329477155  MEMB      111             0.0000000000
     14708       117  POPS      O11            33.7823009320        2.6590851376       28.7593337914  MEMB      111             0.0000000000
     14709       117  POPS      C1             33.2828164702        3.8956043966       28.2418751140  MEMB      111             0.0000000000
     14710       117  POPS      HA             32.2370202996        3.7760784111       27.8640291012  MEMB      111             0.0000000000
     14711       117  POPS      HB             33.9256993402        4.2369875277       27.3936648654  MEMB      111             0.0000000000
     14712       117  POPS      C2             33.2931665938        5.0377129601       29.3141936414  MEMB      111             0.0000000000
     14713       117  POPS      HS             33.6999896206        5.9525672669       28.8248247029  MEMB      111             0.0000000000
     14714       117  POPS      O21            34.0736928322        4.6648816710       30.4772063320  MEMB      111             0.0000000000
     14715       117  POPS      C21            35.3876282278        4.6938332803       30.2265494977  MEMB      111             0.0000000000
     14716       117  POPS      O22            35.9174812802        5.3732526372       29.3650997563  MEMB      111             0.0000000000
     14717       117  POPS      C22            36.1802255592        3.8562160862       31.2342781504  MEMB      111             0.0000000000
     14718       117  POPS      H2R            35.8272704370        4.1011011717       32.2557093721  MEMB      111             0.0000000000
     14719       117  POPS      H2S            37.2366737236        4.1841451254       31.1304394485  MEMB      111             0.0000000000
     14720       117  POPS      C3             31.8469444112        5.4462232746       29.7653711417  MEMB      111             0.0000000000
     14721       117  POPS      HX             31.3094392551        5.7576957480       28.8399739296  MEMB      111             0.0000000000
     14722       117  POPS      HY             31.9515032122        6.3309960351       30.4402728777  MEMB      111             0.0000000000
     14723       117  POPS      O31            31.1092297675        4.3952677043       30.4199909260  MEMB      111             0.0000000000
     14724       117  POPS      C31            29.8546900074        4.7515491345       30.7807591290  MEMB      111             0.0000000000
     14725       117  POPS      O32            29.3775627832        5.8191323695       30.4393254899  MEMB      111             0.0000000000
     14726       117  POPS      C32            29.1809827635        3.5731294594       31.5886889527  MEMB      111             0.0000000000
     14727       117  POPS      H2X            30.0073260032        2.8529493339       31.6166648177  MEMB      111             0.0000000000
     14728       117  POPS      H2Y            28.3823112487        3.1292085585       31.0109343282  MEMB      111             0.0000000000
     14729       117  POPS      C23            36.0812334251        2.3354568534       30.9705228522  MEMB      111             0.0000000000
     14730       117  POPS      H3R            35.9967678861        2.1534945845       29.8744888281  MEMB      111             0.0000000000
     14731       117  POPS      H3S            35.1511863828        1.9422693749       31.4247797423  MEMB      111             0.0000000000
     14732       117  POPS      C24            37.2600700240        1.4855883887       31.4709072273  MEMB      111             0.0000000000
     14733       117  POPS      H4R            38.1036189502        1.6229288130       30.7660388011  MEMB      111             0.0000000000
     14734       117  POPS      H4S            36.9576074647        0.4155388059       31.4123007616  MEMB      111             0.0000000000
     14735       117  POPS      C25            37.7559136090        1.8126241983       32.8846740486  MEMB      111             0.0000000000
     14736       117  POPS      H5R            37.8589382001        2.9125218882       32.9954819894  MEMB      111             0.0000000000
     14737       117  POPS      H5S            38.7723763947        1.3907681863       33.0381880164  MEMB      111             0.0000000000
     14738       117  POPS      C26            36.8553540762        1.2341788364       33.9793929407  MEMB      111             0.0000000000
     14739       117  POPS      H6R            37.0117046703        0.1323911194       34.0250224095  MEMB      111             0.0000000000
     14740       117  POPS      H6S            35.7901817952        1.4086501131       33.7097035880  MEMB      111             0.0000000000
     14741       117  POPS      C27            37.1694655704        1.8683843696       35.3388244270  MEMB      111             0.0000000000
     14742       117  POPS      H7R            38.2756036636        1.9544852926       35.4286380420  MEMB      111             0.0000000000
     14743       117  POPS      H7S            36.8304694563        1.2058385307       36.1670571781  MEMB      111             0.0000000000
     14744       117  POPS      C28            36.5414852098        3.2670922870       35.4761994174  MEMB      111             0.0000000000
     14745       117  POPS      H8R            36.6150614860        3.8052178256       34.5079215208  MEMB      111             0.0000000000
     14746       117  POPS      H8S            37.1160262546        3.8559267942       36.2175171089  MEMB      111             0.0000000000
     14747       117  POPS      C29            35.1087446768        3.1272110672       35.8941260933  MEMB      111             0.0000000000
     14748       117  POPS      H91            34.6096120250        2.2358921223       35.4878612830  MEMB      111             0.0000000000
     14749       117  POPS      C210           34.4097901811        3.9425817694       36.6960476638  MEMB      111             0.0000000000
     14750       117  POPS      H101           33.3924503448        3.6375964874       36.9729701726  MEMB      111             0.0000000000
     14751       117  POPS      C211           34.8633607985        5.2004451364       37.3798556425  MEMB      111             0.0000000000
     14752       117  POPS      H11R           34.2580082506        6.0633300844       37.0241442607  MEMB      111             0.0000000000
     14753       117  POPS      H11S           35.9287325246        5.4435447307       37.1736139648  MEMB      111             0.0000000000
     14754       117  POPS      C212           34.6631304988        5.0330698953       38.8914499384  MEMB      111             0.0000000000
     14755       117  POPS      H12R           33.6394537535        4.6615930704       39.1251678818  MEMB      111             0.0000000000
     14756       117  POPS      H12S           34.7769697692        6.0278342858       39.3789343762  MEMB      111             0.0000000000
     14757       117  POPS      C213           35.6803456356        4.0719304035       39.4947461404  MEMB      111             0.0000000000
     14758       117  POPS      H13R           36.6873544107        4.5143876622       39.3305898448  MEMB      111             0.0000000000
     14759       117  POPS      H13S           35.6542576276        3.0887720444       38.9737142428  MEMB      111             0.0000000000
     14760       117  POPS      C214           35.4796866364        3.8521156579       40.9913466491  MEMB      111             0.0000000000
     14761       117  POPS      H14R           34.5663961889        3.2464829711       41.1780234324  MEMB      111             0.0000000000
     14762       117  POPS      H14S           35.3404140329        4.8392549603       41.4789975301  MEMB      111             0.0000000000
     14763       117  POPS      C215           36.7104486399        3.1593478256       41.5714153714  MEMB      111             0.0000000000
     14764       117  POPS      H15R           37.5944567688        3.7127898682       41.2028630097  MEMB      111             0.0000000000
     14765       117  POPS      H15S           36.7587664476        2.1218499855       41.1700634798  MEMB      111             0.0000000000
     14766       117  POPS      C216           36.7735026933        3.1621927157       43.0962288914  MEMB      111             0.0000000000
     14767       117  POPS      H16R           35.7381703808        3.0746529248       43.4952533048  MEMB      111             0.0000000000
     14768       117  POPS      H16S           37.1860460409        4.1354478867       43.4293943446  MEMB      111             0.0000000000
     14769       117  POPS      C217           37.6318921652        2.0211993669       43.6546335652  MEMB      111             0.0000000000
     14770       117  POPS      H17R           38.7057539625        2.2009390744       43.4243410563  MEMB      111             0.0000000000
     14771       117  POPS      H17S           37.3433535204        1.0823852222       43.1291682911  MEMB      111             0.0000000000
     14772       117  POPS      C218           37.4343587954        1.8160456360       45.1569304296  MEMB      111             0.0000000000
     14773       117  POPS      H18R           36.3742384188        1.9961634050       45.4335889178  MEMB      111             0.0000000000
     14774       117  POPS      H18S           38.0739583207        2.5069806501       45.7447256136  MEMB      111             0.0000000000
     14775       117  POPS      H18T           37.6771150170        0.7724881891       45.4419677848  MEMB      111             0.0000000000
     14776       117  POPS      C33            28.6809691134        3.3957495384       33.0534869662  MEMB      111             0.0000000000
     14777       117  POPS      H3X            27.6515359725        3.7612412888       33.2179128444  MEMB      111             0.0000000000
     14778       117  POPS      H3Y            29.3941787610        3.9475203870       33.6581501213  MEMB      111             0.0000000000
     14779       117  POPS      C34            28.8482388643        1.8775952251       33.3612301084  MEMB      111             0.0000000000
     14780       117  POPS      H4X            29.9211159513        1.6840992574       33.4875520831  MEMB      111             0.0000000000
     14781       117  POPS      H4Y            28.5390272851        1.3485895042       32.4299556223  MEMB      111             0.0000000000
     14782       117  POPS      C35            28.1757667387        1.0692849412       34.4818803136  MEMB      111             0.0000000000
     14783       117  POPS      H5X            28.5898536899        0.0344041889       34.3874988365  MEMB      111             0.0000000000
     14784       117  POPS      H5Y            27.0974896781        0.9966637729       34.2297294087  MEMB      111             0.0000000000
     14785       117  POPS      C36            28.2914884249        1.4311289467       35.9777292938  MEMB      111             0.0000000000
     14786       117  POPS      H6X            27.7840535609        0.5960492730       36.5048067164  MEMB      111             0.0000000000
     14787       117  POPS      H6Y            27.6540321963        2.3200173990       36.1361206867  MEMB      111             0.0000000000
     14788       117  POPS      C37            29.6450855415        1.6311069441       36.7090572943  MEMB      111             0.0000000000
     14789       117  POPS      H7X            29.4343067517        1.5914207013       37.8011018728  MEMB      111             0.0000000000
     14790       117  POPS      H7Y            30.0170538244        2.6559890359       36.5379616839  MEMB      111             0.0000000000
     14791       117  POPS      C38            30.8308716281        0.6942929656       36.4190641007  MEMB      111             0.0000000000
     14792       117  POPS      H8X            31.0586932795        0.7343035713       35.3306449496  MEMB      111             0.0000000000
     14793       117  POPS      H8Y            30.6002137416       -0.3569753731       36.6487892145  MEMB      111             0.0000000000
     14794       117  POPS      C39            32.0816933205        1.1565512658       37.2011123090  MEMB      111             0.0000000000
     14795       117  POPS      H9X            31.8947514098        2.1902777603       37.5722782768  MEMB      111             0.0000000000
     14796       117  POPS      H9Y            32.9377763771        1.2099705628       36.4949692364  MEMB      111             0.0000000000
     14797       117  POPS      C310           32.5282860456        0.2924042306       38.3911682090  MEMB      111             0.0000000000
     14798       117  POPS      H10X           33.4953970582       -0.1958523555       38.1332594149  MEMB      111             0.0000000000
     14799       117  POPS      H10Y           31.8026300159       -0.5195140434       38.5844493633  MEMB      111             0.0000000000
     14800       117  POPS      C311           32.7149737055        1.0961966423       39.6896039314  MEMB      111             0.0000000000
     14801       117  POPS      H11X           31.7232951772        1.4408816490       40.0524066866  MEMB      111             0.0000000000
     14802       117  POPS      H11Y           33.3246364532        2.0046612170       39.4859791229  MEMB      111             0.0000000000
     14803       117  POPS      C312           33.4095733713        0.2794671459       40.7887516349  MEMB      111             0.0000000000
     14804       117  POPS      H12X           34.5020827656        0.2857418184       40.5734753813  MEMB      111             0.0000000000
     14805       117  POPS      H12Y           33.0743802263       -0.7770592496       40.7428039364  MEMB      111             0.0000000000
     14806       117  POPS      C313           33.1635484325        0.8170168071       42.2072511824  MEMB      111             0.0000000000
     14807       117  POPS      H13X           32.2774175875        0.3255686320       42.6633349390  MEMB      111             0.0000000000
     14808       117  POPS      H13Y           32.9361820404        1.9048845799       42.1322713489  MEMB      111             0.0000000000
     14809       117  POPS      C314           34.3857692553        0.6878799966       43.1279295713  MEMB      111             0.0000000000
     14810       117  POPS      H14X           34.2248270523        1.3645781943       43.9986632240  MEMB      111             0.0000000000
     14811       117  POPS      H14Y           35.2730925463        1.0536752097       42.5773595649  MEMB      111             0.0000000000
     14812       117  POPS      C315           34.6838275440       -0.7192034409       43.6593130888  MEMB      111             0.0000000000
     14813       117  POPS      H15X           33.7203182096       -1.2308616685       43.8650807335  MEMB      111             0.0000000000
     14814       117  POPS      H15Y           35.2129988006       -0.6167424719       44.6344331953  MEMB      111             0.0000000000
     14815       117  POPS      C316           35.5846082903       -1.5622479677       42.7504685681  MEMB      111             0.0000000000
     14816       117  POPS      H16X           36.5611203777       -1.0585818870       42.5926849333  MEMB      111             0.0000000000
     14817       117  POPS      H16Y           35.1093842538       -1.7194433658       41.7610373685  MEMB      111             0.0000000000
     14818       117  POPS      H16Z           35.7792487070       -2.5577993500       43.2035659535  MEMB      111             0.0000000000
     14819       118  POPC      N              13.2307685150       56.1536222066       25.1180882548  MEMB      112             0.0000000000
     14820       118  POPC      C12            12.9813448390       54.6506783157       25.2194538431  MEMB      112             0.0000000000
     14821       118  POPC      H12A           13.4589648765       54.1274883605       24.4013254313  MEMB      112             0.0000000000
     14822       118  POPC      H12B           11.9030532938       54.4813067190       25.1358796645  MEMB      112             0.0000000000
     14823       118  POPC      C13            14.7058978017       56.4245810262       25.1125221567  MEMB      112             0.0000000000
     14824       118  POPC      H13A           15.1584280293       56.0226149887       24.2136179352  MEMB      112             0.0000000000
     14825       118  POPC      H13B           14.9341716250       57.4864142852       25.1584037117  MEMB      112             0.0000000000
     14826       118  POPC      H13C           15.1637868697       55.9478663100       25.9697406913  MEMB      112             0.0000000000
     14827       118  POPC      C14            12.6125981819       56.7098186563       23.8710306732  MEMB      112             0.0000000000
     14828       118  POPC      H14A           11.5657312854       56.4416680986       23.7952116604  MEMB      112             0.0000000000
     14829       118  POPC      H14B           12.6567747273       57.7979605053       23.8742951924  MEMB      112             0.0000000000
     14830       118  POPC      H14C           13.1284714940       56.3781314946       22.9761896238  MEMB      112             0.0000000000
     14831       118  POPC      C15            12.5724187652       56.8462660558       26.2710611943  MEMB      112             0.0000000000
     14832       118  POPC      H15A           12.8948026789       56.4143652292       27.2206999976  MEMB      112             0.0000000000
     14833       118  POPC      H15B           11.4986753638       56.6579515148       26.2582398301  MEMB      112             0.0000000000
     14834       118  POPC      H15C           12.7235762439       57.9125692034       26.2591606502  MEMB      112             0.0000000000
     14835       118  POPC      C11            13.3828456621       53.9464272082       26.5442343210  MEMB      112             0.0000000000
     14836       118  POPC      H11A           14.4517430219       54.1285672850       26.7750680054  MEMB      112             0.0000000000
     14837       118  POPC      H11B           13.2766475203       52.8395364663       26.4246842938  MEMB      112             0.0000000000
     14838       118  POPC      P              11.0666020466       53.9734492594       27.7235246883  MEMB      112             0.0000000000
     14839       118  POPC      O13            10.4375732501       54.2671323654       26.4144584225  MEMB      112             0.0000000000
     14840       118  POPC      O14            10.4684914361       54.5841676478       28.9283511389  MEMB      112             0.0000000000
     14841       118  POPC      O12            12.5935314048       54.4190790181       27.6348178238  MEMB      112             0.0000000000
     14842       118  POPC      O11            11.1794732502       52.4319085781       27.9358774474  MEMB      112             0.0000000000
     14843       118  POPC      C1             12.1404743529       51.9490724627       28.8718237594  MEMB      112             0.0000000000
     14844       118  POPC      HA             12.8993296933       52.7043576530       29.1959397955  MEMB      112             0.0000000000
     14845       118  POPC      HB             12.6979533943       51.1163667421       28.3824383379  MEMB      112             0.0000000000
     14846       118  POPC      C2             11.5023305257       51.3903099536       30.1659490350  MEMB      112             0.0000000000
     14847       118  POPC      HS             10.8563436541       50.5576117403       29.8685242535  MEMB      112             0.0000000000
     14848       118  POPC      O21            10.7658663056       52.3706774146       30.9306584254  MEMB      112             0.0000000000
     14849       118  POPC      C21             9.4658267919       52.4267824825       30.6964858168  MEMB      112             0.0000000000
     14850       118  POPC      O22             8.8136591289       51.6390546554       30.0323149240  MEMB      112             0.0000000000
     14851       118  POPC      C22             8.8321620934       53.5815453088       31.4954560572  MEMB      112             0.0000000000
     14852       118  POPC      H2R             7.8009597321       53.2534057172       31.6991235101  MEMB      112             0.0000000000
     14853       118  POPC      H2S             8.8058156938       54.4698251939       30.8312335721  MEMB      112             0.0000000000
     14854       118  POPC      C3             12.6595648066       50.8434138299       31.0151422916  MEMB      112             0.0000000000
     14855       118  POPC      HX             13.3509492835       50.3040309030       30.3404053878  MEMB      112             0.0000000000
     14856       118  POPC      HY             12.3243268644       50.0712288037       31.7254833100  MEMB      112             0.0000000000
     14857       118  POPC      O31            13.2982906059       51.9821645522       31.6199418598  MEMB      112             0.0000000000
     14858       118  POPC      C31            13.2960846822       51.9910018389       32.9287155154  MEMB      112             0.0000000000
     14859       118  POPC      O32            13.2707288962       51.0121461870       33.6547852491  MEMB      112             0.0000000000
     14860       118  POPC      C32            13.2793825092       53.4302678003       33.4514304659  MEMB      112             0.0000000000
     14861       118  POPC      H2X            14.0562584133       53.5004182082       34.2304443724  MEMB      112             0.0000000000
     14862       118  POPC      H2Y            12.2988056975       53.5458138533       33.9479272553  MEMB      112             0.0000000000
     14863       118  POPC      C23             9.4722636785       53.9556262934       32.8562646381  MEMB      112             0.0000000000
     14864       118  POPC      H3R             8.8390145311       54.7424796258       33.3232416428  MEMB      112             0.0000000000
     14865       118  POPC      H3S            10.4795712016       54.3954930134       32.6982671948  MEMB      112             0.0000000000
     14866       118  POPC      C24             9.5583779792       52.7616399050       33.8129625315  MEMB      112             0.0000000000
     14867       118  POPC      H4R            10.4025780540       52.1436603719       33.4439726326  MEMB      112             0.0000000000
     14868       118  POPC      H4S             8.6317438945       52.1485849221       33.7538354544  MEMB      112             0.0000000000
     14869       118  POPC      C25             9.8247830356       53.1313632587       35.2791086387  MEMB      112             0.0000000000
     14870       118  POPC      H5R             8.8789166419       53.4779426665       35.7515462942  MEMB      112             0.0000000000
     14871       118  POPC      H5S            10.5380488148       53.9812627602       35.3234432149  MEMB      112             0.0000000000
     14872       118  POPC      C26            10.4270820213       51.9569406977       36.0696585213  MEMB      112             0.0000000000
     14873       118  POPC      H6R            11.4708224332       52.1925885978       36.3698694615  MEMB      112             0.0000000000
     14874       118  POPC      H6S            10.4957243252       51.0738256875       35.4008508510  MEMB      112             0.0000000000
     14875       118  POPC      C27             9.5896163597       51.5344564075       37.2844388444  MEMB      112             0.0000000000
     14876       118  POPC      H7R             9.7690090890       50.4530349809       37.4897284717  MEMB      112             0.0000000000
     14877       118  POPC      H7S             8.5161891729       51.6433993693       37.0161706831  MEMB      112             0.0000000000
     14878       118  POPC      C28             9.8799049630       52.3384241104       38.5636589583  MEMB      112             0.0000000000
     14879       118  POPC      H8R             9.1248771245       52.0549445922       39.3322904284  MEMB      112             0.0000000000
     14880       118  POPC      H8S             9.7248795308       53.4202961487       38.3551061950  MEMB      112             0.0000000000
     14881       118  POPC      C29            11.2740001381       52.1093776794       39.0893780394  MEMB      112             0.0000000000
     14882       118  POPC      H91            12.0364787766       52.8061801158       38.7177395079  MEMB      112             0.0000000000
     14883       118  POPC      C210           11.6620664630       51.1162443434       39.9022099492  MEMB      112             0.0000000000
     14884       118  POPC      H101           12.7082651114       51.0865330518       40.2430932329  MEMB      112             0.0000000000
     14885       118  POPC      C211           10.7736926643       50.0308114128       40.4448331519  MEMB      112             0.0000000000
     14886       118  POPC      H11R            9.8972052792       49.8514499664       39.7815295550  MEMB      112             0.0000000000
     14887       118  POPC      H11S           10.3755515794       50.3341109877       41.4339770039  MEMB      112             0.0000000000
     14888       118  POPC      C212           11.5357533387       48.7025649261       40.5951472501  MEMB      112             0.0000000000
     14889       118  POPC      H12R           12.1410242425       48.5028322857       39.6819992214  MEMB      112             0.0000000000
     14890       118  POPC      H12S           10.7946101683       47.8748490350       40.6786736377  MEMB      112             0.0000000000
     14891       118  POPC      C213           12.4352877465       48.6591947223       41.8406886525  MEMB      112             0.0000000000
     14892       118  POPC      H13R           13.0470417090       49.5848036076       41.8866072417  MEMB      112             0.0000000000
     14893       118  POPC      H13S           13.1445930398       47.8088424099       41.7555240362  MEMB      112             0.0000000000
     14894       118  POPC      C214           11.6271195419       48.4935025516       43.1372968720  MEMB      112             0.0000000000
     14895       118  POPC      H14R           10.9528798623       47.6132329609       43.0337558416  MEMB      112             0.0000000000
     14896       118  POPC      H14S           10.9846442252       49.3904025130       43.2800803873  MEMB      112             0.0000000000
     14897       118  POPC      C215           12.4770863424       48.2987307359       44.3992921321  MEMB      112             0.0000000000
     14898       118  POPC      H15R           12.9195145402       47.2775216805       44.3907786541  MEMB      112             0.0000000000
     14899       118  POPC      H15S           11.8013058409       48.3590657241       45.2800436733  MEMB      112             0.0000000000
     14900       118  POPC      C216           13.6263765370       49.3017591410       44.5507153305  MEMB      112             0.0000000000
     14901       118  POPC      H16R           14.3509241683       49.1396696238       43.7214513847  MEMB      112             0.0000000000
     14902       118  POPC      H16S           14.1633195543       49.0789282180       45.4980880114  MEMB      112             0.0000000000
     14903       118  POPC      C217           13.2071810816       50.7736696517       44.5600582233  MEMB      112             0.0000000000
     14904       118  POPC      H17R           12.6018323293       50.9725302765       45.4724275970  MEMB      112             0.0000000000
     14905       118  POPC      H17S           12.5618671943       50.9957552495       43.6804651570  MEMB      112             0.0000000000
     14906       118  POPC      C218           14.4203260037       51.7026603517       44.5152206457  MEMB      112             0.0000000000
     14907       118  POPC      H18R           15.1085303414       51.4884911662       45.3607732377  MEMB      112             0.0000000000
     14908       118  POPC      H18S           14.1068666827       52.7644279545       44.5726791101  MEMB      112             0.0000000000
     14909       118  POPC      H18T           14.9797165674       51.5550783611       43.5658647809  MEMB      112             0.0000000000
     14910       118  POPC      C33            13.4542855858       54.5667497357       32.4031115707  MEMB      112             0.0000000000
     14911       118  POPC      H3X            12.4762165888       54.8057938588       31.9320901831  MEMB      112             0.0000000000
     14912       118  POPC      H3Y            14.1067006234       54.2194736931       31.5713506694  MEMB      112             0.0000000000
     14913       118  POPC      C34            14.1270560855       55.8450486394       32.9530531350  MEMB      112             0.0000000000
     14914       118  POPC      H4X            14.3806840923       56.4642262146       32.0646258560  MEMB      112             0.0000000000
     14915       118  POPC      H4Y            15.0768440277       55.5815272186       33.4650263319  MEMB      112             0.0000000000
     14916       118  POPC      C35            13.2835293735       56.7157266440       33.8986714118  MEMB      112             0.0000000000
     14917       118  POPC      H5X            12.3257267005       56.9800948003       33.3954588496  MEMB      112             0.0000000000
     14918       118  POPC      H5Y            13.8357257465       57.6645986257       34.0991495873  MEMB      112             0.0000000000
     14919       118  POPC      C36            12.9844855807       56.0361251413       35.2389652809  MEMB      112             0.0000000000
     14920       118  POPC      H6X            13.9162978598       55.5946878543       35.6560794217  MEMB      112             0.0000000000
     14921       118  POPC      H6Y            12.2616548903       55.2154166272       35.0667210655  MEMB      112             0.0000000000
     14922       118  POPC      C37            12.3470775418       56.9643618077       36.2714563999  MEMB      112             0.0000000000
     14923       118  POPC      H7X            11.5501999417       57.5608527655       35.7711634779  MEMB      112             0.0000000000
     14924       118  POPC      H7Y            13.1171211698       57.6728056910       36.6442852093  MEMB      112             0.0000000000
     14925       118  POPC      C38            11.7160712875       56.1872941948       37.4355199049  MEMB      112             0.0000000000
     14926       118  POPC      H8X            10.9116799121       55.5329820871       37.0302816943  MEMB      112             0.0000000000
     14927       118  POPC      H8Y            11.2074196341       56.8961488550       38.1161878695  MEMB      112             0.0000000000
     14928       118  POPC      C39            12.6864038938       55.2994684439       38.2366420926  MEMB      112             0.0000000000
     14929       118  POPC      H9X            12.9455562940       54.4126986584       37.6156221198  MEMB      112             0.0000000000
     14930       118  POPC      H9Y            12.1346914704       54.9398789092       39.1334707300  MEMB      112             0.0000000000
     14931       118  POPC      C310           14.0024154621       55.9511389230       38.6902948227  MEMB      112             0.0000000000
     14932       118  POPC      H10X           13.7910295837       56.8846489985       39.2523374665  MEMB      112             0.0000000000
     14933       118  POPC      H10Y           14.5905823565       56.2459782712       37.7929618899  MEMB      112             0.0000000000
     14934       118  POPC      C311           14.8677635699       54.9996413952       39.5447082790  MEMB      112             0.0000000000
     14935       118  POPC      H11X           15.8295231153       55.5141189400       39.7633276216  MEMB      112             0.0000000000
     14936       118  POPC      H11Y           15.1043929108       54.0945480477       38.9419069910  MEMB      112             0.0000000000
     14937       118  POPC      C312           14.2335760475       54.5579044530       40.8820164974  MEMB      112             0.0000000000
     14938       118  POPC      H12X           14.9565230010       53.9117539322       41.4282716862  MEMB      112             0.0000000000
     14939       118  POPC      H12Y           13.3268590465       53.9469857870       40.6837467507  MEMB      112             0.0000000000
     14940       118  POPC      C313           13.8610886765       55.7500532210       41.7734687964  MEMB      112             0.0000000000
     14941       118  POPC      H13X           13.1388997641       56.3924179384       41.2261602421  MEMB      112             0.0000000000
     14942       118  POPC      H13Y           14.7798620899       56.3466307083       41.9559581074  MEMB      112             0.0000000000
     14943       118  POPC      C314           13.2329408767       55.4081254402       43.1306859265  MEMB      112             0.0000000000
     14944       118  POPC      H14X           13.1765538905       56.3598022068       43.7095556795  MEMB      112             0.0000000000
     14945       118  POPC      H14Y           13.8882194602       54.7181868858       43.6999056770  MEMB      112             0.0000000000
     14946       118  POPC      C315           11.8123583905       54.8452448038       43.0166927354  MEMB      112             0.0000000000
     14947       118  POPC      H15X           11.8551290256       53.7639226164       42.7516264033  MEMB      112             0.0000000000
     14948       118  POPC      H15Y           11.2930194650       55.3692274476       42.1804325509  MEMB      112             0.0000000000
     14949       118  POPC      C316           10.9874750221       55.0487981202       44.2896213650  MEMB      112             0.0000000000
     14950       118  POPC      H16X           11.4027752744       54.4649003818       45.1344474335  MEMB      112             0.0000000000
     14951       118  POPC      H16Y            9.9380883884       54.7265374896       44.1294003598  MEMB      112             0.0000000000
     14952       118  POPC      H16Z           10.9749368992       56.1219298819       44.5773216477  MEMB      112             0.0000000000
     14953       119  POPC      N               3.0299033997       43.5520831127       24.7672285276  MEMB      113             0.0000000000
     14954       119  POPC      C12             4.4091009663       44.1489226408       25.0606487595  MEMB      113             0.0000000000
     14955       119  POPC      H12A            4.3327528900       45.2298601638       25.1790357034  MEMB      113             0.0000000000
     14956       119  POPC      H12B            5.0426502829       43.9825369141       24.1959581360  MEMB      113             0.0000000000
     14957       119  POPC      C13             2.2266858299       43.5327119751       26.0298643196  MEMB      113             0.0000000000
     14958       119  POPC      H13A            2.1227069219       44.5133474709       26.4592509185  MEMB      113             0.0000000000
     14959       119  POPC      H13B            1.2667664007       43.0580272672       25.8815683009  MEMB      113             0.0000000000
     14960       119  POPC      H13C            2.7725654762       42.9356072967       26.7764188668  MEMB      113             0.0000000000
     14961       119  POPC      C14             2.3068657152       44.2996953055       23.6872658445  MEMB      113             0.0000000000
     14962       119  POPC      H14A            2.8275480751       44.2203744505       22.7369385809  MEMB      113             0.0000000000
     14963       119  POPC      H14B            1.3001241562       43.9162260930       23.5310621595  MEMB      113             0.0000000000
     14964       119  POPC      H14C            2.2399497713       45.3536400397       23.9127257611  MEMB      113             0.0000000000
     14965       119  POPC      C15             3.2037883802       42.1386688872       24.3210275465  MEMB      113             0.0000000000
     14966       119  POPC      H15A            3.6815452934       41.5858254062       25.1294069676  MEMB      113             0.0000000000
     14967       119  POPC      H15B            3.8508604339       42.0628975999       23.4593890985  MEMB      113             0.0000000000
     14968       119  POPC      H15C            2.2776422023       41.6277507934       24.1072997961  MEMB      113             0.0000000000
     14969       119  POPC      C11             5.2163769817       43.5616743572       26.2622913053  MEMB      113             0.0000000000
     14970       119  POPC      H11A            4.6292092408       43.6227979902       27.2090823995  MEMB      113             0.0000000000
     14971       119  POPC      H11B            6.1051421495       44.2196459064       26.4109426055  MEMB      113             0.0000000000
     14972       119  POPC      P               5.3206166875       40.9705577503       26.8619429555  MEMB      113             0.0000000000
     14973       119  POPC      O13             5.9639726539       41.0253363553       28.1812252148  MEMB      113             0.0000000000
     14974       119  POPC      O14             5.4498252258       39.7384634220       26.0409753847  MEMB      113             0.0000000000
     14975       119  POPC      O12             5.6849795896       42.2402328838       25.9841944771  MEMB      113             0.0000000000
     14976       119  POPC      O11             3.7568456118       41.2518708570       27.0594141053  MEMB      113             0.0000000000
     14977       119  POPC      C1              3.1130070925       40.5486399001       28.1213839048  MEMB      113             0.0000000000
     14978       119  POPC      HA              3.7935702855       40.4201726058       29.0007558897  MEMB      113             0.0000000000
     14979       119  POPC      HB              2.8201217697       39.5490877978       27.7452524378  MEMB      113             0.0000000000
     14980       119  POPC      C2              1.8233107961       41.2233313948       28.6818721771  MEMB      113             0.0000000000
     14981       119  POPC      HS              1.0589801984       41.1878655959       27.8731140812  MEMB      113             0.0000000000
     14982       119  POPC      O21             2.0778941478       42.5857216721       29.0700356144  MEMB      113             0.0000000000
     14983       119  POPC      C21             1.0016194135       43.3127086169       29.3363098067  MEMB      113             0.0000000000
     14984       119  POPC      O22            -0.1429960172       43.0221274353       29.0260088871  MEMB      113             0.0000000000
     14985       119  POPC      C22             1.4470409976       44.6118422061       30.0015813249  MEMB      113             0.0000000000
     14986       119  POPC      H2R             1.3492724919       45.4385004614       29.2718218530  MEMB      113             0.0000000000
     14987       119  POPC      H2S             2.5248528356       44.5000680153       30.2621968286  MEMB      113             0.0000000000
     14988       119  POPC      C3              1.3368479497       40.3810545771       29.8956357911  MEMB      113             0.0000000000
     14989       119  POPC      HX              1.0621944605       39.3679387255       29.5317129368  MEMB      113             0.0000000000
     14990       119  POPC      HY              0.4283054707       40.8579604539       30.3299691595  MEMB      113             0.0000000000
     14991       119  POPC      O31             2.4218100184       40.2483828864       30.8325818402  MEMB      113             0.0000000000
     14992       119  POPC      C31             2.0774936456       40.2082344969       32.1075554578  MEMB      113             0.0000000000
     14993       119  POPC      O32             0.9286730049       40.1566318240       32.5166553303  MEMB      113             0.0000000000
     14994       119  POPC      C32             3.3225882122       40.2095976407       32.9844044210  MEMB      113             0.0000000000
     14995       119  POPC      H2X             4.1767017261       39.8040229281       32.4014152593  MEMB      113             0.0000000000
     14996       119  POPC      H2Y             3.1359559118       39.5384099978       33.8457362450  MEMB      113             0.0000000000
     14997       119  POPC      C23             0.6829420257       44.9489643740       31.2988859018  MEMB      113             0.0000000000
     14998       119  POPC      H3R             0.6394444463       44.0556325203       31.9651720964  MEMB      113             0.0000000000
     14999       119  POPC      H3S            -0.3612178850       45.2675476783       31.0807419936  MEMB      113             0.0000000000
     15000       119  POPC      C24             1.4286602382       46.0583660291       32.0421524100  MEMB      113             0.0000000000
     15001       119  POPC      H4R             1.4413060726       46.9701054067       31.4060165935  MEMB      113             0.0000000000
     15002       119  POPC      H4S             2.4872394974       45.7517885464       32.1873826287  MEMB      113             0.0000000000
     15003       119  POPC      C25             0.8674606699       46.4187135867       33.4193643039  MEMB      113             0.0000000000
     15004       119  POPC      H5R            -0.2001650961       46.7287983610       33.3482043689  MEMB      113             0.0000000000
     15005       119  POPC      H5S             1.4622980620       47.2978276497       33.7602112727  MEMB      113             0.0000000000
     15006       119  POPC      C26             1.0325115588       45.3136554197       34.4696525602  MEMB      113             0.0000000000
     15007       119  POPC      H6R             1.7509550404       44.5462031374       34.1021398248  MEMB      113             0.0000000000
     15008       119  POPC      H6S             0.0517173539       44.8090754651       34.6093495703  MEMB      113             0.0000000000
     15009       119  POPC      C27             1.5642282905       45.8730877248       35.8018370042  MEMB      113             0.0000000000
     15010       119  POPC      H7R             1.1407208082       46.8908540563       35.9683471806  MEMB      113             0.0000000000
     15011       119  POPC      H7S             2.6672180369       45.9949974393       35.7058438209  MEMB      113             0.0000000000
     15012       119  POPC      C28             1.2417018087       44.9813924417       37.0120078004  MEMB      113             0.0000000000
     15013       119  POPC      H8R             1.8157464941       45.3483605354       37.8923778470  MEMB      113             0.0000000000
     15014       119  POPC      H8S             1.5979220003       43.9491223926       36.7908667684  MEMB      113             0.0000000000
     15015       119  POPC      C29            -0.2348045266       45.0312166120       37.3170566464  MEMB      113             0.0000000000
     15016       119  POPC      H91            -0.6964779083       46.0246289864       37.2018405695  MEMB      113             0.0000000000
     15017       119  POPC      C210           -1.0066634015       44.0022520969       37.7020221006  MEMB      113             0.0000000000
     15018       119  POPC      H101           -2.0687446171       44.1910494679       37.9249531932  MEMB      113             0.0000000000
     15019       119  POPC      C211           -0.5585849956       42.5787138014       37.9152912019  MEMB      113             0.0000000000
     15020       119  POPC      H11R            0.2410785370       42.2880315939       37.1974194107  MEMB      113             0.0000000000
     15021       119  POPC      H11S           -1.4124854465       41.8910744732       37.7309225626  MEMB      113             0.0000000000
     15022       119  POPC      C212           -0.0319909021       42.3433205886       39.3465078598  MEMB      113             0.0000000000
     15023       119  POPC      H12R            0.9702819330       42.8170202948       39.4486843187  MEMB      113             0.0000000000
     15024       119  POPC      H12S            0.0984276323       41.2487964485       39.5037373807  MEMB      113             0.0000000000
     15025       119  POPC      C213           -0.9542678754       42.9036109766       40.4436549305  MEMB      113             0.0000000000
     15026       119  POPC      H13R           -1.9912474844       42.5806407214       40.2374741688  MEMB      113             0.0000000000
     15027       119  POPC      H13S           -0.9611589260       44.0132379377       40.3929460092  MEMB      113             0.0000000000
     15028       119  POPC      C214           -0.5733315416       42.4602187642       41.8627203997  MEMB      113             0.0000000000
     15029       119  POPC      H14R           -0.5435030930       41.3486509153       41.9073479813  MEMB      113             0.0000000000
     15030       119  POPC      H14S           -1.3687902912       42.8014442273       42.5637534571  MEMB      113             0.0000000000
     15031       119  POPC      C215            0.7709999083       43.0277222109       42.3373891514  MEMB      113             0.0000000000
     15032       119  POPC      H15R            1.5816101365       42.5933855972       41.7218377886  MEMB      113             0.0000000000
     15033       119  POPC      H15S            0.9322454071       42.7164219267       43.3946673341  MEMB      113             0.0000000000
     15034       119  POPC      C216            0.8445813690       44.5527009588       42.2203516925  MEMB      113             0.0000000000
     15035       119  POPC      H16R           -0.1368760944       44.9500484842       42.5731212994  MEMB      113             0.0000000000
     15036       119  POPC      H16S            0.9694495256       44.8629767663       41.1599371707  MEMB      113             0.0000000000
     15037       119  POPC      C217            1.9318124798       45.2009324023       43.0822414006  MEMB      113             0.0000000000
     15038       119  POPC      H17R            2.0524258935       44.6268297033       44.0255111447  MEMB      113             0.0000000000
     15039       119  POPC      H17S            1.5306981049       46.2102840628       43.3351937749  MEMB      113             0.0000000000
     15040       119  POPC      C218            3.3049998835       45.4028690579       42.4408665481  MEMB      113             0.0000000000
     15041       119  POPC      H18R            3.2142876106       46.0004086301       41.5142372814  MEMB      113             0.0000000000
     15042       119  POPC      H18S            3.7764507763       44.4414236662       42.1730320624  MEMB      113             0.0000000000
     15043       119  POPC      H18T            3.9815828236       45.9369989817       43.1439663584  MEMB      113             0.0000000000
     15044       119  POPC      C33             3.6320742467       41.6389280546       33.4645366212  MEMB      113             0.0000000000
     15045       119  POPC      H3X             2.8133083925       42.0183200934       34.1191968239  MEMB      113             0.0000000000
     15046       119  POPC      H3Y             3.6830926285       42.3099175857       32.5711753985  MEMB      113             0.0000000000
     15047       119  POPC      C34             4.9764150262       41.7461512132       34.1909050229  MEMB      113             0.0000000000
     15048       119  POPC      H4X             5.3112448907       42.8045364280       34.0845410006  MEMB      113             0.0000000000
     15049       119  POPC      H4Y             5.7424513438       41.1070661250       33.6960525997  MEMB      113             0.0000000000
     15050       119  POPC      C35             4.8742136103       41.4236736900       35.6840224578  MEMB      113             0.0000000000
     15051       119  POPC      H5X             5.1291783260       40.3539540066       35.8451347405  MEMB      113             0.0000000000
     15052       119  POPC      H5Y             3.8213413117       41.5704215354       36.0154997328  MEMB      113             0.0000000000
     15053       119  POPC      C36             5.7780583968       42.3154510683       36.5449765203  MEMB      113             0.0000000000
     15054       119  POPC      H6X             5.6331291708       43.3830420672       36.2655547615  MEMB      113             0.0000000000
     15055       119  POPC      H6Y             6.8367809454       42.0476934041       36.3250536620  MEMB      113             0.0000000000
     15056       119  POPC      C37             5.5121190533       42.1426362060       38.0471146913  MEMB      113             0.0000000000
     15057       119  POPC      H7X             6.3694908611       42.5638704148       38.6169849832  MEMB      113             0.0000000000
     15058       119  POPC      H7Y             5.4786172684       41.0567439266       38.2681043408  MEMB      113             0.0000000000
     15059       119  POPC      C38             4.2179922021       42.8216528138       38.5329571509  MEMB      113             0.0000000000
     15060       119  POPC      H8X             3.3356758247       42.3846397889       38.0179056806  MEMB      113             0.0000000000
     15061       119  POPC      H8Y             4.2657066438       43.9007766001       38.2625982192  MEMB      113             0.0000000000
     15062       119  POPC      C39             4.0096833624       42.7113188635       40.0563463650  MEMB      113             0.0000000000
     15063       119  POPC      H9X             3.1984070998       43.4056925127       40.3615923109  MEMB      113             0.0000000000
     15064       119  POPC      H9Y             4.9532657139       43.0490611952       40.5345553062  MEMB      113             0.0000000000
     15065       119  POPC      C310            3.6443903469       41.2875329504       40.5102359853  MEMB      113             0.0000000000
     15066       119  POPC      H10X            4.3403709459       40.6048602484       39.9885080000  MEMB      113             0.0000000000
     15067       119  POPC      H10Y            2.6302039142       41.0301342729       40.1323539271  MEMB      113             0.0000000000
     15068       119  POPC      C311            3.7235520512       40.9637095599       42.0231908980  MEMB      113             0.0000000000
     15069       119  POPC      H11X            3.9916698682       39.8854229343       42.1054006743  MEMB      113             0.0000000000
     15070       119  POPC      H11Y            2.7241102881       41.0649357556       42.4914052027  MEMB      113             0.0000000000
     15071       119  POPC      C312            4.7356287403       41.7784622597       42.8453325279  MEMB      113             0.0000000000
     15072       119  POPC      H12X            4.2805146524       42.7401355204       43.1555525140  MEMB      113             0.0000000000
     15073       119  POPC      H12Y            5.6248653258       41.9943465429       42.2107580148  MEMB      113             0.0000000000
     15074       119  POPC      C313            5.2604676875       41.0531690310       44.0902144434  MEMB      113             0.0000000000
     15075       119  POPC      H13X            6.0962944637       41.6427985151       44.5298246465  MEMB      113             0.0000000000
     15076       119  POPC      H13Y            5.6744611935       40.0822003070       43.7536601503  MEMB      113             0.0000000000
     15077       119  POPC      C314            4.2332171698       40.7611374683       45.1887290111  MEMB      113             0.0000000000
     15078       119  POPC      H14X            3.3701481682       40.2219395595       44.7520518036  MEMB      113             0.0000000000
     15079       119  POPC      H14Y            3.8538953985       41.7126117501       45.6154786946  MEMB      113             0.0000000000
     15080       119  POPC      C315            4.8641200716       39.8910139877       46.2844757321  MEMB      113             0.0000000000
     15081       119  POPC      H15X            5.7213201812       40.4466772088       46.7287185799  MEMB      113             0.0000000000
     15082       119  POPC      H15Y            5.2737495333       38.9787877553       45.7931458398  MEMB      113             0.0000000000
     15083       119  POPC      C316            3.9192268475       39.4482980737       47.3990612292  MEMB      113             0.0000000000
     15084       119  POPC      H16X            3.1055789132       38.8094737012       46.9951073319  MEMB      113             0.0000000000
     15085       119  POPC      H16Y            3.4525272907       40.3214623339       47.8963462413  MEMB      113             0.0000000000
     15086       119  POPC      H16Z            4.4723526986       38.8638552251       48.1654941915  MEMB      113             0.0000000000
     15087       120  POPS      N              12.3144572732        7.3436943490       26.5629565435  MEMB      114             0.0000000000
     15088       120  POPS      HN1            12.6800788671        7.9710726267       27.2953648334  MEMB      114             0.0000000000
     15089       120  POPS      HN2            11.3690818197        7.6439667868       26.2235868833  MEMB      114             0.0000000000
     15090       120  POPS      HN3            12.2782216882        6.3923441472       26.9840834228  MEMB      114             0.0000000000
     15091       120  POPS      C12            13.3085867089        7.3284410763       25.4309016452  MEMB      114             0.0000000000
     15092       120  POPS      H12A           13.7906187880        8.2923794145       25.3826271657  MEMB      114             0.0000000000
     15093       120  POPS      C13            12.6943959930        7.0644234778       24.0435112813  MEMB      114             0.0000000000
     15094       120  POPS      O13A           11.4803802562        6.7452926774       23.9662695231  MEMB      114             0.0000000000
     15095       120  POPS      O13B           13.4351785426        7.1186020679       23.0317925047  MEMB      114             0.0000000000
     15096       120  POPS      C11            14.3428504395        6.2008941087       25.6941955536  MEMB      114             0.0000000000
     15097       120  POPS      H11A           15.1222045064        6.2759465997       24.8953821904  MEMB      114             0.0000000000
     15098       120  POPS      H11B           13.8288163267        5.2110024277       25.5913311260  MEMB      114             0.0000000000
     15099       120  POPS      P              15.9344927796        5.1659010453       27.4369681348  MEMB      114             0.0000000000
     15100       120  POPS      O13            16.7610739645        5.6781189383       28.5358235238  MEMB      114             0.0000000000
     15101       120  POPS      O14            16.5965980868        4.5948931819       26.2457419239  MEMB      114             0.0000000000
     15102       120  POPS      O12            14.9424405987        6.3326223339       26.9887027895  MEMB      114             0.0000000000
     15103       120  POPS      O11            14.9070245930        4.0960164161       28.0164641027  MEMB      114             0.0000000000
     15104       120  POPS      C1             15.1735572036        3.4022573659       29.2500142787  MEMB      114             0.0000000000
     15105       120  POPS      HA             16.0567816942        3.8012342972       29.8074477798  MEMB      114             0.0000000000
     15106       120  POPS      HB             15.3960043733        2.3386786014       29.0194968892  MEMB      114             0.0000000000
     15107       120  POPS      C2             13.9801005307        3.4308825658       30.2588802036  MEMB      114             0.0000000000
     15108       120  POPS      HS             13.0576231407        3.0917630595       29.7343152781  MEMB      114             0.0000000000
     15109       120  POPS      O21            13.8235976003        4.7358505250       30.8196401757  MEMB      114             0.0000000000
     15110       120  POPS      C21            13.1762720904        5.6167904642       30.1142478474  MEMB      114             0.0000000000
     15111       120  POPS      O22            12.4730745720        5.4226579163       29.1333384274  MEMB      114             0.0000000000
     15112       120  POPS      C22            13.3837513810        6.9856607212       30.7494688862  MEMB      114             0.0000000000
     15113       120  POPS      H2R            12.7203279975        7.0622070809       31.6354860368  MEMB      114             0.0000000000
     15114       120  POPS      H2S            13.0525480428        7.7445448462       30.0116272393  MEMB      114             0.0000000000
     15115       120  POPS      C3             14.2457593700        2.4739654024       31.4559120326  MEMB      114             0.0000000000
     15116       120  POPS      HX             14.2824357321        1.4341814195       31.0606151053  MEMB      114             0.0000000000
     15117       120  POPS      HY             13.3853617195        2.5204001865       32.1627295439  MEMB      114             0.0000000000
     15118       120  POPS      O31            15.5102077527        2.7725386559       32.0872217264  MEMB      114             0.0000000000
     15119       120  POPS      C31            15.4822323498        3.5230114057       33.1900948976  MEMB      114             0.0000000000
     15120       120  POPS      O32            14.4871311529        3.8830023814       33.7928103466  MEMB      114             0.0000000000
     15121       120  POPS      C32            16.9456911787        3.6968829445       33.6473318768  MEMB      114             0.0000000000
     15122       120  POPS      H2X            17.4349928623        4.4101519525       32.9529600299  MEMB      114             0.0000000000
     15123       120  POPS      H2Y            17.4421592329        2.7118153588       33.5130881634  MEMB      114             0.0000000000
     15124       120  POPS      C23            14.8447414664        7.2667858044       31.1799416961  MEMB      114             0.0000000000
     15125       120  POPS      H3R            15.5661669921        6.8897506474       30.4207408728  MEMB      114             0.0000000000
     15126       120  POPS      H3S            15.0608059420        6.7405668490       32.1372466901  MEMB      114             0.0000000000
     15127       120  POPS      C24            15.0348403705        8.7764539127       31.3314102795  MEMB      114             0.0000000000
     15128       120  POPS      H4R            14.1634900580        9.1329192330       31.9223160335  MEMB      114             0.0000000000
     15129       120  POPS      H4S            14.9699613379        9.2329197834       30.3184205458  MEMB      114             0.0000000000
     15130       120  POPS      C25            16.3399046201        9.2432510476       31.9919879676  MEMB      114             0.0000000000
     15131       120  POPS      H5R            16.4390070006       10.3430786620       31.8510599256  MEMB      114             0.0000000000
     15132       120  POPS      H5S            17.1990496619        8.7655280729       31.4694838881  MEMB      114             0.0000000000
     15133       120  POPS      C26            16.4254460734        8.9458682381       33.4941943803  MEMB      114             0.0000000000
     15134       120  POPS      H6R            17.4182761986        9.2872714254       33.8640106830  MEMB      114             0.0000000000
     15135       120  POPS      H6S            16.3784947344        7.8454819897       33.6313360850  MEMB      114             0.0000000000
     15136       120  POPS      C27            15.3305123151        9.6085052695       34.3471026347  MEMB      114             0.0000000000
     15137       120  POPS      H7R            14.3448050931        9.1558597170       34.0978147594  MEMB      114             0.0000000000
     15138       120  POPS      H7S            15.2794944144       10.6931410164       34.1105619274  MEMB      114             0.0000000000
     15139       120  POPS      C28            15.6081114026        9.4107080238       35.8433535211  MEMB      114             0.0000000000
     15140       120  POPS      H8R            16.5871267103        9.8909623592       36.0662306792  MEMB      114             0.0000000000
     15141       120  POPS      H8S            15.7463927981        8.3169022459       36.0009314526  MEMB      114             0.0000000000
     15142       120  POPS      C29            14.5724626538        9.9638917964       36.7856176898  MEMB      114             0.0000000000
     15143       120  POPS      H91            14.4080047497       11.0517189616       36.7231554535  MEMB      114             0.0000000000
     15144       120  POPS      C210           13.8613275630        9.2368812893       37.6639512341  MEMB      114             0.0000000000
     15145       120  POPS      H101           13.1900186809        9.7569116965       38.3599435708  MEMB      114             0.0000000000
     15146       120  POPS      C211           13.9620860664        7.7448127045       37.8642109189  MEMB      114             0.0000000000
     15147       120  POPS      H11R           14.9758165635        7.4556896577       38.2092370995  MEMB      114             0.0000000000
     15148       120  POPS      H11S           13.7845490746        7.2102289922       36.9015637336  MEMB      114             0.0000000000
     15149       120  POPS      C212           12.9420029490        7.2333694744       38.8964782465  MEMB      114             0.0000000000
     15150       120  POPS      H12R           11.9196419221        7.3429857293       38.4687098323  MEMB      114             0.0000000000
     15151       120  POPS      H12S           12.9876329800        7.8504052359       39.8233215733  MEMB      114             0.0000000000
     15152       120  POPS      C213           13.1680359899        5.7650726348       39.2990388031  MEMB      114             0.0000000000
     15153       120  POPS      H13R           13.9031487065        5.7413522512       40.1323954131  MEMB      114             0.0000000000
     15154       120  POPS      H13S           13.6213223892        5.2049896312       38.4511062189  MEMB      114             0.0000000000
     15155       120  POPS      C214           11.8610478338        5.0671993461       39.7105648403  MEMB      114             0.0000000000
     15156       120  POPS      H14R           11.3814323449        4.6644435757       38.7891245704  MEMB      114             0.0000000000
     15157       120  POPS      H14S           11.1571505961        5.8197478582       40.1283282429  MEMB      114             0.0000000000
     15158       120  POPS      C215           12.0291255688        3.9346933720       40.7416343500  MEMB      114             0.0000000000
     15159       120  POPS      H15R           12.7024419679        3.1541980140       40.3241597739  MEMB      114             0.0000000000
     15160       120  POPS      H15S           11.0411759772        3.4560329967       40.9059618785  MEMB      114             0.0000000000
     15161       120  POPS      C216           12.5532673051        4.3697404352       42.1247045462  MEMB      114             0.0000000000
     15162       120  POPS      H16R           13.6381987352        4.5637799582       42.0132009383  MEMB      114             0.0000000000
     15163       120  POPS      H16S           12.4118132804        3.5413540524       42.8497111526  MEMB      114             0.0000000000
     15164       120  POPS      C217           11.9580075533        5.6760963434       42.6582265328  MEMB      114             0.0000000000
     15165       120  POPS      H17R           10.8642573110        5.6971647417       42.4581051463  MEMB      114             0.0000000000
     15166       120  POPS      H17S           12.4634912010        6.4541715785       42.0435929418  MEMB      114             0.0000000000
     15167       120  POPS      C218           12.2108879992        6.0588516417       44.1209029327  MEMB      114             0.0000000000
     15168       120  POPS      H18R           12.8097517780        5.2941517441       44.6429690022  MEMB      114             0.0000000000
     15169       120  POPS      H18S           11.2502749436        6.1888988854       44.6627656903  MEMB      114             0.0000000000
     15170       120  POPS      H18T           12.7760734033        7.0134898505       44.1806871337  MEMB      114             0.0000000000
     15171       120  POPS      C33            17.1536759068        4.1579980161       35.1165397348  MEMB      114             0.0000000000
     15172       120  POPS      H3X            18.0232109510        3.5979600655       35.5325998466  MEMB      114             0.0000000000
     15173       120  POPS      H3Y            16.2694097422        3.9101421054       35.7421212320  MEMB      114             0.0000000000
     15174       120  POPS      C34            17.4838636569        5.6558550994       35.2327091781  MEMB      114             0.0000000000
     15175       120  POPS      H4X            16.6015601453        6.2351744998       34.8854505946  MEMB      114             0.0000000000
     15176       120  POPS      H4Y            18.3388928920        5.8858262338       34.5576224240  MEMB      114             0.0000000000
     15177       120  POPS      C35            17.8350105100        6.1182384388       36.6588689986  MEMB      114             0.0000000000
     15178       120  POPS      H5X            18.5235520240        5.3823207015       37.1186435976  MEMB      114             0.0000000000
     15179       120  POPS      H5Y            16.8960731282        6.1261242643       37.2526046376  MEMB      114             0.0000000000
     15180       120  POPS      C36            18.5209799514        7.5003992198       36.6883028759  MEMB      114             0.0000000000
     15181       120  POPS      H6X            17.9253947499        8.1922389117       36.0619807764  MEMB      114             0.0000000000
     15182       120  POPS      H6Y            19.5119456171        7.4050578129       36.1923009074  MEMB      114             0.0000000000
     15183       120  POPS      C37            18.7205111599        8.1453929967       38.0821495577  MEMB      114             0.0000000000
     15184       120  POPS      H7X            19.1380490728        9.1678289111       37.9404005121  MEMB      114             0.0000000000
     15185       120  POPS      H7Y            19.4751363802        7.5610890749       38.6511069307  MEMB      114             0.0000000000
     15186       120  POPS      C38            17.4290231257        8.2597713832       38.9095553303  MEMB      114             0.0000000000
     15187       120  POPS      H8X            17.0094156018        7.2422639118       39.0419860822  MEMB      114             0.0000000000
     15188       120  POPS      H8Y            16.6899097233        8.8547791750       38.3329279432  MEMB      114             0.0000000000
     15189       120  POPS      C39            17.5784590724        8.9096868206       40.2980583627  MEMB      114             0.0000000000
     15190       120  POPS      H9X            17.8166434989        9.9884663147       40.1537453141  MEMB      114             0.0000000000
     15191       120  POPS      H9Y            18.4316111958        8.4620259251       40.8467997038  MEMB      114             0.0000000000
     15192       120  POPS      C310           16.2940640691        8.7964705628       41.1499877492  MEMB      114             0.0000000000
     15193       120  POPS      H10X           15.4569280956        9.2022667484       40.5354057156  MEMB      114             0.0000000000
     15194       120  POPS      H10Y           16.3817038881        9.4411048017       42.0515292629  MEMB      114             0.0000000000
     15195       120  POPS      C311           15.9077912800        7.3685444218       41.5985994380  MEMB      114             0.0000000000
     15196       120  POPS      H11X           16.2696766508        6.6186694710       40.8693023110  MEMB      114             0.0000000000
     15197       120  POPS      H11Y           14.7983441398        7.2878206531       41.5886903808  MEMB      114             0.0000000000
     15198       120  POPS      C312           16.3675033013        6.9973762549       43.0210373927  MEMB      114             0.0000000000
     15199       120  POPS      H12X           15.9957440364        7.7829736003       43.7186383482  MEMB      114             0.0000000000
     15200       120  POPS      H12Y           17.4716962680        7.0072840426       43.0963783846  MEMB      114             0.0000000000
     15201       120  POPS      C313           15.8253080388        5.6384912724       43.5140181535  MEMB      114             0.0000000000
     15202       120  POPS      H13X           14.7227046437        5.7223836459       43.5313546222  MEMB      114             0.0000000000
     15203       120  POPS      H13Y           16.1724665257        5.4924652575       44.5616453782  MEMB      114             0.0000000000
     15204       120  POPS      C314           16.2034991821        4.3918065482       42.6835205689  MEMB      114             0.0000000000
     15205       120  POPS      H14X           17.2859845848        4.2061103972       42.7957281855  MEMB      114             0.0000000000
     15206       120  POPS      H14Y           16.0136825921        4.5771255306       41.6045633511  MEMB      114             0.0000000000
     15207       120  POPS      C315           15.4946296892        3.0803767772       43.0852689375  MEMB      114             0.0000000000
     15208       120  POPS      H15X           16.2120636735        2.2473364431       42.9526772500  MEMB      114             0.0000000000
     15209       120  POPS      H15Y           14.6743462569        2.8480156918       42.3757083459  MEMB      114             0.0000000000
     15210       120  POPS      C316           14.9556633008        3.0474815346       44.5145310215  MEMB      114             0.0000000000
     15211       120  POPS      H16X           14.5424195682        2.0455056808       44.7570025759  MEMB      114             0.0000000000
     15212       120  POPS      H16Y           14.1496242691        3.7905182376       44.6406023787  MEMB      114             0.0000000000
     15213       120  POPS      H16Z           15.7608673354        3.2881949826       45.2407876574  MEMB      114             0.0000000000
     15214       121  POPC      N               2.6962457463       24.3118455032       26.3601971048  MEMB      115             0.0000000000
     15215       121  POPC      C12             1.3206906453       23.6801092548       26.5312551012  MEMB      115             0.0000000000
     15216       121  POPC      H12A            1.3329283242       22.9515605327       27.3400713568  MEMB      115             0.0000000000
     15217       121  POPC      H12B            1.0599564340       23.1343219778       25.6328922471  MEMB      115             0.0000000000
     15218       121  POPC      C13             2.9286344535       25.3071166710       27.4576196443  MEMB      115             0.0000000000
     15219       121  POPC      H13A            2.1329436427       26.0531509134       27.4127561863  MEMB      115             0.0000000000
     15220       121  POPC      H13B            2.8219797435       24.8857738100       28.4445897105  MEMB      115             0.0000000000
     15221       121  POPC      H13C            3.8640155088       25.8409456933       27.3658501630  MEMB      115             0.0000000000
     15222       121  POPC      C14             3.7772914427       23.2996511364       26.3548631336  MEMB      115             0.0000000000
     15223       121  POPC      H14A            3.6284354666       22.5671722078       25.5684709498  MEMB      115             0.0000000000
     15224       121  POPC      H14B            4.7070462917       23.8048125023       26.1125022237  MEMB      115             0.0000000000
     15225       121  POPC      H14C            3.8617166407       22.8061822655       27.3110123848  MEMB      115             0.0000000000
     15226       121  POPC      C15             2.7780244200       25.0783226895       25.0671272761  MEMB      115             0.0000000000
     15227       121  POPC      H15A            2.6974581704       24.4506439173       24.1933922205  MEMB      115             0.0000000000
     15228       121  POPC      H15B            3.6684950664       25.7022265893       25.0052577775  MEMB      115             0.0000000000
     15229       121  POPC      H15C            1.9530987671       25.7969325255       25.0279411728  MEMB      115             0.0000000000
     15230       121  POPC      C11             0.1752147907       24.6644361726       26.8650521417  MEMB      115             0.0000000000
     15231       121  POPC      H11A            0.2778463324       24.9079824415       27.9464138425  MEMB      115             0.0000000000
     15232       121  POPC      H11B           -0.8203430934       24.1745016396       26.7450748632  MEMB      115             0.0000000000
     15233       121  POPC      P              -0.6231687682       27.0887023581       26.3491526284  MEMB      115             0.0000000000
     15234       121  POPC      O13            -1.9126979064       26.8020876672       25.6974735370  MEMB      115             0.0000000000
     15235       121  POPC      O14             0.1294637739       28.2650508297       25.8810766804  MEMB      115             0.0000000000
     15236       121  POPC      O12             0.2709390365       25.8366070346       26.0602952361  MEMB      115             0.0000000000
     15237       121  POPC      O11            -0.7489034897       27.1536865066       27.9159413583  MEMB      115             0.0000000000
     15238       121  POPC      C1              0.3281733598       27.6335110925       28.7306102777  MEMB      115             0.0000000000
     15239       121  POPC      HA              0.1013057279       28.6824955321       29.0169861860  MEMB      115             0.0000000000
     15240       121  POPC      HB              1.3234259248       27.6400004877       28.2227700524  MEMB      115             0.0000000000
     15241       121  POPC      C2              0.4374088198       26.8059966934       30.0372813865  MEMB      115             0.0000000000
     15242       121  POPC      HS              0.6841689804       27.5289904278       30.8524279033  MEMB      115             0.0000000000
     15243       121  POPC      O21             1.4663609979       25.8020600882       29.8946038861  MEMB      115             0.0000000000
     15244       121  POPC      C21             1.8914418891       25.3113911550       31.0610234928  MEMB      115             0.0000000000
     15245       121  POPC      O22             1.9127391848       25.9170868256       32.1142370140  MEMB      115             0.0000000000
     15246       121  POPC      C22             2.2795746252       23.8526419691       30.8493594613  MEMB      115             0.0000000000
     15247       121  POPC      H2R             3.0927810438       23.8306921249       30.0978347167  MEMB      115             0.0000000000
     15248       121  POPC      H2S             1.3956725629       23.3147990203       30.4499412019  MEMB      115             0.0000000000
     15249       121  POPC      C3             -0.9176207772       26.1028548943       30.3542877294  MEMB      115             0.0000000000
     15250       121  POPC      HX             -1.0483033954       25.2670411595       29.6325609931  MEMB      115             0.0000000000
     15251       121  POPC      HY             -1.7692274702       26.7930679449       30.1615371917  MEMB      115             0.0000000000
     15252       121  POPC      O31            -0.9202906956       25.5634061553       31.6896732007  MEMB      115             0.0000000000
     15253       121  POPC      C31            -1.1918981664       26.4831639805       32.6156096908  MEMB      115             0.0000000000
     15254       121  POPC      O32            -1.6456654349       27.5885950083       32.3764812009  MEMB      115             0.0000000000
     15255       121  POPC      C32            -0.8632617499       25.9432807358       34.0037388335  MEMB      115             0.0000000000
     15256       121  POPC      H2X             0.1333096595       25.4616801541       33.9698257145  MEMB      115             0.0000000000
     15257       121  POPC      H2Y            -1.6230966213       25.1769882187       34.2551551751  MEMB      115             0.0000000000
     15258       121  POPC      C23             2.7565391806       23.1939826159       32.1512019124  MEMB      115             0.0000000000
     15259       121  POPC      H3R             3.4885195000       23.8684275764       32.6567587082  MEMB      115             0.0000000000
     15260       121  POPC      H3S             3.2806826545       22.2420942742       31.9078140392  MEMB      115             0.0000000000
     15261       121  POPC      C24             1.6347196778       22.8624894403       33.1357658085  MEMB      115             0.0000000000
     15262       121  POPC      H4R             1.1463502709       21.9031712958       32.8583379469  MEMB      115             0.0000000000
     15263       121  POPC      H4S             0.8606638635       23.6612385040       33.1071203458  MEMB      115             0.0000000000
     15264       121  POPC      C25             2.1842939001       22.7976867035       34.5646529437  MEMB      115             0.0000000000
     15265       121  POPC      H5R             2.7188284095       23.7563620160       34.7679833404  MEMB      115             0.0000000000
     15266       121  POPC      H5S             2.9307466587       21.9810332668       34.6391638223  MEMB      115             0.0000000000
     15267       121  POPC      C26             1.0926246064       22.6445740669       35.6246797251  MEMB      115             0.0000000000
     15268       121  POPC      H6R             0.3019536776       23.4034792682       35.4286585951  MEMB      115             0.0000000000
     15269       121  POPC      H6S             1.5372244106       22.8789144880       36.6176074603  MEMB      115             0.0000000000
     15270       121  POPC      C27             0.4664002595       21.2438631562       35.6904452869  MEMB      115             0.0000000000
     15271       121  POPC      H7R             1.2380548158       20.5202995968       36.0327773175  MEMB      115             0.0000000000
     15272       121  POPC      H7S             0.1423308375       20.9246744522       34.6749155218  MEMB      115             0.0000000000
     15273       121  POPC      C28            -0.7171436500       21.1707056328       36.6724058052  MEMB      115             0.0000000000
     15274       121  POPC      H8R            -0.3962949988       21.5653564567       37.6559103404  MEMB      115             0.0000000000
     15275       121  POPC      H8S            -0.9644451078       20.0967206790       36.8330492138  MEMB      115             0.0000000000
     15276       121  POPC      C29            -1.9240474190       21.8713803650       36.1018124956  MEMB      115             0.0000000000
     15277       121  POPC      H91            -2.3831881864       21.2854474379       35.2949877136  MEMB      115             0.0000000000
     15278       121  POPC      C210           -2.4890950035       23.0636093642       36.3764970470  MEMB      115             0.0000000000
     15279       121  POPC      H101           -3.3750453393       23.3273916154       35.7783086137  MEMB      115             0.0000000000
     15280       121  POPC      C211           -2.1224339028       24.1481479968       37.3625908714  MEMB      115             0.0000000000
     15281       121  POPC      H11R           -3.0273360724       24.4236533468       37.9448845908  MEMB      115             0.0000000000
     15282       121  POPC      H11S           -1.8695324057       25.0542054120       36.7799255597  MEMB      115             0.0000000000
     15283       121  POPC      C212           -0.9804616909       23.9377138162       38.3761966699  MEMB      115             0.0000000000
     15284       121  POPC      H12R           -0.0348521009       23.7624616729       37.8199705861  MEMB      115             0.0000000000
     15285       121  POPC      H12S           -1.1765686617       23.0461589882       39.0077959741  MEMB      115             0.0000000000
     15286       121  POPC      C213           -0.7573046378       25.1544411573       39.2828015330  MEMB      115             0.0000000000
     15287       121  POPC      H13R           -0.7712994203       26.0796391755       38.6658308702  MEMB      115             0.0000000000
     15288       121  POPC      H13S            0.2508414520       25.0695499207       39.7456431013  MEMB      115             0.0000000000
     15289       121  POPC      C214           -1.7813088114       25.2781580970       40.4142564527  MEMB      115             0.0000000000
     15290       121  POPC      H14R           -1.6297663723       24.4365949692       41.1277742267  MEMB      115             0.0000000000
     15291       121  POPC      H14S           -2.8145563292       25.1979554910       40.0108871181  MEMB      115             0.0000000000
     15292       121  POPC      C215           -1.6476139145       26.6124986459       41.1552028255  MEMB      115             0.0000000000
     15293       121  POPC      H15R           -1.9511963294       27.4371598729       40.4715325905  MEMB      115             0.0000000000
     15294       121  POPC      H15S           -0.5795188282       26.7695082126       41.4279715905  MEMB      115             0.0000000000
     15295       121  POPC      C216           -2.5134325440       26.6591849251       42.4175862026  MEMB      115             0.0000000000
     15296       121  POPC      H16R           -2.1316745535       25.8933567690       43.1262990636  MEMB      115             0.0000000000
     15297       121  POPC      H16S           -3.5571397864       26.3717892117       42.1564973473  MEMB      115             0.0000000000
     15298       121  POPC      C217           -2.5363532892       28.0370494922       43.0952790866  MEMB      115             0.0000000000
     15299       121  POPC      H17R           -3.1135048613       27.9537113334       44.0451993926  MEMB      115             0.0000000000
     15300       121  POPC      H17S           -3.0852410535       28.7475973459       42.4352358343  MEMB      115             0.0000000000
     15301       121  POPC      C218           -1.1590837042       28.6339211615       43.3913571550  MEMB      115             0.0000000000
     15302       121  POPC      H18R           -1.2687990165       29.5661988450       43.9861964525  MEMB      115             0.0000000000
     15303       121  POPC      H18S           -0.6287898851       28.8905254987       42.4487343403  MEMB      115             0.0000000000
     15304       121  POPC      H18T           -0.5334489114       27.9190946130       43.9667261540  MEMB      115             0.0000000000
     15305       121  POPC      C33            -0.8564960604       27.0703162929       35.0586937698  MEMB      115             0.0000000000
     15306       121  POPC      H3X            -0.8388873092       26.6349575108       36.0762092509  MEMB      115             0.0000000000
     15307       121  POPC      H3Y            -1.8033675762       27.6484544643       34.9918901159  MEMB      115             0.0000000000
     15308       121  POPC      C34             0.3525909694       28.0075468224       34.9192147209  MEMB      115             0.0000000000
     15309       121  POPC      H4X             0.1229639264       28.9545793469       35.4549085598  MEMB      115             0.0000000000
     15310       121  POPC      H4Y             0.5093790839       28.2591160438       33.8469580871  MEMB      115             0.0000000000
     15311       121  POPC      C35             1.6603366950       27.4550883134       35.5063667405  MEMB      115             0.0000000000
     15312       121  POPC      H5X             2.4703232612       28.1939982800       35.3087285381  MEMB      115             0.0000000000
     15313       121  POPC      H5Y             1.9393744851       26.5089114917       34.9921681652  MEMB      115             0.0000000000
     15314       121  POPC      C36             1.5728550656       27.2221936753       37.0200043225  MEMB      115             0.0000000000
     15315       121  POPC      H6X             0.9069836860       26.3547250811       37.2210228676  MEMB      115             0.0000000000
     15316       121  POPC      H6Y             1.1229156844       28.1246489128       37.4925621887  MEMB      115             0.0000000000
     15317       121  POPC      C37             2.9300132712       26.9485129533       37.6726088767  MEMB      115             0.0000000000
     15318       121  POPC      H7X             3.6426470463       27.7533742960       37.3818249960  MEMB      115             0.0000000000
     15319       121  POPC      H7Y             3.3231986977       25.9864009447       37.2766743566  MEMB      115             0.0000000000
     15320       121  POPC      C38             2.8188203228       26.9032272690       39.2027565049  MEMB      115             0.0000000000
     15321       121  POPC      H8X             2.0799646021       26.1346518043       39.5089848263  MEMB      115             0.0000000000
     15322       121  POPC      H8Y             2.4336724520       27.8906859985       39.5490249672  MEMB      115             0.0000000000
     15323       121  POPC      C39             4.1610290161       26.6301147937       39.8903955324  MEMB      115             0.0000000000
     15324       121  POPC      H9X             4.0907550359       26.8923249622       40.9679239034  MEMB      115             0.0000000000
     15325       121  POPC      H9Y             4.9041470200       27.3176201936       39.4330757481  MEMB      115             0.0000000000
     15326       121  POPC      C310            4.6576040763       25.1827827334       39.7435655248  MEMB      115             0.0000000000
     15327       121  POPC      H10X            5.7515190184       25.1584158686       39.9466264371  MEMB      115             0.0000000000
     15328       121  POPC      H10Y            4.5184185079       24.8473134115       38.6937209123  MEMB      115             0.0000000000
     15329       121  POPC      C311            3.9825530115       24.1806444333       40.6947923524  MEMB      115             0.0000000000
     15330       121  POPC      H11X            4.3109615048       23.1613774024       40.3909205211  MEMB      115             0.0000000000
     15331       121  POPC      H11Y            2.8773289397       24.2262144082       40.5876615004  MEMB      115             0.0000000000
     15332       121  POPC      C312            4.3828570386       24.3808073604       42.1641137162  MEMB      115             0.0000000000
     15333       121  POPC      H12X            3.9090508035       25.3033110590       42.5646081119  MEMB      115             0.0000000000
     15334       121  POPC      H12Y            5.4867364541       24.5217127025       42.2123508639  MEMB      115             0.0000000000
     15335       121  POPC      C313            4.0125697274       23.1832023949       43.0498516944  MEMB      115             0.0000000000
     15336       121  POPC      H13X            4.3770548529       22.2544901125       42.5560157952  MEMB      115             0.0000000000
     15337       121  POPC      H13Y            2.9057895933       23.1044668455       43.1286110733  MEMB      115             0.0000000000
     15338       121  POPC      C314            4.6319270517       23.2554071675       44.4544632145  MEMB      115             0.0000000000
     15339       121  POPC      H14X            5.7359169223       23.3229687960       44.3567603408  MEMB      115             0.0000000000
     15340       121  POPC      H14Y            4.4083094252       22.3126355431       44.9966935586  MEMB      115             0.0000000000
     15341       121  POPC      C315            4.1543226551       24.4564210491       45.2810313129  MEMB      115             0.0000000000
     15342       121  POPC      H15X            3.0557345612       24.5795792588       45.1538131978  MEMB      115             0.0000000000
     15343       121  POPC      H15Y            4.6429159483       25.3674014495       44.8683868599  MEMB      115             0.0000000000
     15344       121  POPC      C316            4.4701791976       24.3508400581       46.7753352884  MEMB      115             0.0000000000
     15345       121  POPC      H16X            4.4022596312       25.3466123071       47.2604700151  MEMB      115             0.0000000000
     15346       121  POPC      H16Y            5.4940841799       23.9600293528       46.9355280939  MEMB      115             0.0000000000
     15347       121  POPC      H16Z            3.7619735104       23.6656902514       47.2866506750  MEMB      115             0.0000000000
     15348       122  POPC      N              59.8295626743       13.7629094007       24.2532515806  MEMB      116             0.0000000000
     15349       122  POPC      C12            59.2429200545       12.6165759747       25.0729925459  MEMB      116             0.0000000000
     15350       122  POPC      H12A           60.0020022797       12.2921904934       25.7794122514  MEMB      116             0.0000000000
     15351       122  POPC      H12B           58.9881531695       11.7735199904       24.4388105367  MEMB      116             0.0000000000
     15352       122  POPC      C13            60.3145016207       14.8427093985       25.1752254384  MEMB      116             0.0000000000
     15353       122  POPC      H13A           59.5305233149       15.1276991156       25.8867677628  MEMB      116             0.0000000000
     15354       122  POPC      H13B           61.1580259723       14.5333843585       25.7739308889  MEMB      116             0.0000000000
     15355       122  POPC      H13C           60.6332976947       15.7457237424       24.6658324508  MEMB      116             0.0000000000
     15356       122  POPC      C14            60.9655771019       13.3170404618       23.4007253598  MEMB      116             0.0000000000
     15357       122  POPC      H14A           61.2302850750       14.1180423381       22.7052005904  MEMB      116             0.0000000000
     15358       122  POPC      H14B           61.8677525867       13.1435605097       23.9796354370  MEMB      116             0.0000000000
     15359       122  POPC      H14C           60.7274300489       12.4263647954       22.8368355361  MEMB      116             0.0000000000
     15360       122  POPC      C15            58.8061584780       14.3596856469       23.3485886835  MEMB      116             0.0000000000
     15361       122  POPC      H15A           58.5116065613       13.6206425782       22.6069771990  MEMB      116             0.0000000000
     15362       122  POPC      H15B           59.2045396177       15.2185560164       22.8106622340  MEMB      116             0.0000000000
     15363       122  POPC      H15C           57.9640020968       14.6879681496       23.9366405645  MEMB      116             0.0000000000
     15364       122  POPC      C11            58.0013634404       12.9231026509       25.9440611265  MEMB      116             0.0000000000
     15365       122  POPC      H11A           57.6619990104       11.9486099010       26.3778563314  MEMB      116             0.0000000000
     15366       122  POPC      H11B           57.1612818582       13.2929222644       25.3212273376  MEMB      116             0.0000000000
     15367       122  POPC      P              58.0190990880       13.6275935906       28.4732410235  MEMB      116             0.0000000000
     15368       122  POPC      O13            56.9008997487       12.6696422200       28.5366623273  MEMB      116             0.0000000000
     15369       122  POPC      O14            57.8127463851       14.9108454745       29.1475392234  MEMB      116             0.0000000000
     15370       122  POPC      O12            58.3152907532       13.8994436297       26.9356557741  MEMB      116             0.0000000000
     15371       122  POPC      O11            59.3219629036       12.8870516917       29.0062140367  MEMB      116             0.0000000000
     15372       122  POPC      C1             60.5602219933       12.7850184206       28.2933903424  MEMB      116             0.0000000000
     15373       122  POPC      HA             60.5182261747       13.2424189644       27.2895493873  MEMB      116             0.0000000000
     15374       122  POPC      HB             60.7892273343       11.7060195848       28.1535669844  MEMB      116             0.0000000000
     15375       122  POPC      C2             61.7720202807       13.4676781923       29.0100179822  MEMB      116             0.0000000000
     15376       122  POPC      HS             62.6996974657       13.2232272673       28.4419117614  MEMB      116             0.0000000000
     15377       122  POPC      O21            61.8928208792       13.0099701179       30.3586309665  MEMB      116             0.0000000000
     15378       122  POPC      C21            62.0952359574       11.7434585843       30.5796351917  MEMB      116             0.0000000000
     15379       122  POPC      O22            62.4750717251       10.9112055576       29.7707853470  MEMB      116             0.0000000000
     15380       122  POPC      C22            61.8032256425       11.4800784876       32.0467898470  MEMB      116             0.0000000000
     15381       122  POPC      H2R            61.9095251689       10.3935085507       32.2325797561  MEMB      116             0.0000000000
     15382       122  POPC      H2S            60.7428394065       11.7591889954       32.2226693129  MEMB      116             0.0000000000
     15383       122  POPC      C3             61.6746528404       15.0222361684       29.0476720826  MEMB      116             0.0000000000
     15384       122  POPC      HX             61.5895246923       15.4037117944       28.0077777026  MEMB      116             0.0000000000
     15385       122  POPC      HY             62.6151536972       15.4439977224       29.4731514862  MEMB      116             0.0000000000
     15386       122  POPC      O31            60.5113044278       15.4351960223       29.7807715793  MEMB      116             0.0000000000
     15387       122  POPC      C31            60.6457445271       15.4393348324       31.0969392443  MEMB      116             0.0000000000
     15388       122  POPC      O32            61.6882219287       15.6010909346       31.7086337029  MEMB      116             0.0000000000
     15389       122  POPC      C32            59.3121217972       15.0871405410       31.7642954729  MEMB      116             0.0000000000
     15390       122  POPC      H2X            59.0830807985       14.0391977832       31.4742893353  MEMB      116             0.0000000000
     15391       122  POPC      H2Y            58.5223929080       15.7272057337       31.3403706745  MEMB      116             0.0000000000
     15392       122  POPC      C23            62.7336168196       12.3126337094       32.9556799821  MEMB      116             0.0000000000
     15393       122  POPC      H3R            62.6937939257       13.3826829485       32.6355713541  MEMB      116             0.0000000000
     15394       122  POPC      H3S            63.7855027896       11.9697231225       32.8488971816  MEMB      116             0.0000000000
     15395       122  POPC      C24            62.2992976452       12.2613240292       34.4216892672  MEMB      116             0.0000000000
     15396       122  POPC      H4R            61.2033216313       12.4587931548       34.4423775761  MEMB      116             0.0000000000
     15397       122  POPC      H4S            62.7914650450       13.0765734231       34.9978008678  MEMB      116             0.0000000000
     15398       122  POPC      C25            62.6026131368       10.9141501820       35.0896858533  MEMB      116             0.0000000000
     15399       122  POPC      H5R            63.6098704537       10.9618072420       35.5595015247  MEMB      116             0.0000000000
     15400       122  POPC      H5S            62.6416565148       10.1126690777       34.3185519471  MEMB      116             0.0000000000
     15401       122  POPC      C26            61.5434213453       10.5042554150       36.1201686149  MEMB      116             0.0000000000
     15402       122  POPC      H6R            61.8676507009        9.5537464392       36.5942095805  MEMB      116             0.0000000000
     15403       122  POPC      H6S            60.5797426133       10.3056090588       35.5957419640  MEMB      116             0.0000000000
     15404       122  POPC      C27            61.2972628699       11.5402391868       37.2257919765  MEMB      116             0.0000000000
     15405       122  POPC      H7R            60.5442790309       11.1143924673       37.9302282332  MEMB      116             0.0000000000
     15406       122  POPC      H7S            60.8527680689       12.4541331107       36.7737423765  MEMB      116             0.0000000000
     15407       122  POPC      C28            62.5715452327       11.9175440621       37.9972856874  MEMB      116             0.0000000000
     15408       122  POPC      H8R            63.2876640330       12.4151236955       37.3075929156  MEMB      116             0.0000000000
     15409       122  POPC      H8S            63.0579672267       10.9803371265       38.3494842160  MEMB      116             0.0000000000
     15410       122  POPC      C29            62.2301330181       12.8491001234       39.1289142361  MEMB      116             0.0000000000
     15411       122  POPC      H91            61.5694211433       13.6880437054       38.8636739932  MEMB      116             0.0000000000
     15412       122  POPC      C210           62.6899843509       12.7681212114       40.3846161640  MEMB      116             0.0000000000
     15413       122  POPC      H101           62.3779420283       13.5311936176       41.1129479981  MEMB      116             0.0000000000
     15414       122  POPC      C211           63.6415827194       11.7341432714       40.9146845635  MEMB      116             0.0000000000
     15415       122  POPC      H11R           64.6786588025       12.0561178941       40.6686207156  MEMB      116             0.0000000000
     15416       122  POPC      H11S           63.4849864792       10.7321567595       40.4555108834  MEMB      116             0.0000000000
     15417       122  POPC      C212           63.5492402994       11.5962884658       42.4409434982  MEMB      116             0.0000000000
     15418       122  POPC      H12R           63.5476820524       12.5950051211       42.9220171417  MEMB      116             0.0000000000
     15419       122  POPC      H12S           64.4790688396       11.0926604817       42.7893783998  MEMB      116             0.0000000000
     15420       122  POPC      C213           62.3471677199       10.7717134225       42.9226780202  MEMB      116             0.0000000000
     15421       122  POPC      H13R           61.6796775368       10.5248867677       42.0674663249  MEMB      116             0.0000000000
     15422       122  POPC      H13S           61.7521451800       11.3627971552       43.6532649837  MEMB      116             0.0000000000
     15423       122  POPC      C214           62.8256373934        9.4837026546       43.5984463913  MEMB      116             0.0000000000
     15424       122  POPC      H14R           63.5583995850        9.7593821292       44.3873824782  MEMB      116             0.0000000000
     15425       122  POPC      H14S           63.3584723666        8.8640305707       42.8408610504  MEMB      116             0.0000000000
     15426       122  POPC      C215           61.7117426707        8.6541533033       44.2360903624  MEMB      116             0.0000000000
     15427       122  POPC      H15R           60.9353226221        8.4530070362       43.4645521703  MEMB      116             0.0000000000
     15428       122  POPC      H15S           61.2350224144        9.2199660056       45.0666545500  MEMB      116             0.0000000000
     15429       122  POPC      C216           62.2530774331        7.3177700723       44.7574750326  MEMB      116             0.0000000000
     15430       122  POPC      H16R           62.9360671893        7.4763850290       45.6192400886  MEMB      116             0.0000000000
     15431       122  POPC      H16S           62.8572747388        6.8683855959       43.9383790407  MEMB      116             0.0000000000
     15432       122  POPC      C217           61.1415848930        6.3377371901       45.1390579049  MEMB      116             0.0000000000
     15433       122  POPC      H17R           61.5410613898        5.3027020721       45.0646080650  MEMB      116             0.0000000000
     15434       122  POPC      H17S           60.3184766344        6.4327104690       44.3967453168  MEMB      116             0.0000000000
     15435       122  POPC      C218           60.5879892794        6.5362905166       46.5464896528  MEMB      116             0.0000000000
     15436       122  POPC      H18R           60.2724507465        7.5918928458       46.6882221495  MEMB      116             0.0000000000
     15437       122  POPC      H18S           61.3601762756        6.2908859377       47.3056260162  MEMB      116             0.0000000000
     15438       122  POPC      H18T           59.7113062186        5.8755231841       46.7163499369  MEMB      116             0.0000000000
     15439       122  POPC      C33            59.2996732515       15.2048222712       33.3038870077  MEMB      116             0.0000000000
     15440       122  POPC      H3X            59.5403263335       16.2488421925       33.6067626990  MEMB      116             0.0000000000
     15441       122  POPC      H3Y            60.0909081166       14.5456636842       33.7239934850  MEMB      116             0.0000000000
     15442       122  POPC      C34            57.9244314233       14.7949663027       33.8577256625  MEMB      116             0.0000000000
     15443       122  POPC      H4X            57.7479669988       13.7234181866       33.6070523555  MEMB      116             0.0000000000
     15444       122  POPC      H4Y            57.1375856943       15.3803231999       33.3264362400  MEMB      116             0.0000000000
     15445       122  POPC      C35            57.7517211318       14.9990455226       35.3690142584  MEMB      116             0.0000000000
     15446       122  POPC      H5X            56.7031030288       14.7416056991       35.6464396829  MEMB      116             0.0000000000
     15447       122  POPC      H5Y            57.9083053166       16.0744321941       35.6028087446  MEMB      116             0.0000000000
     15448       122  POPC      C36            58.7093567848       14.1494746441       36.2124433402  MEMB      116             0.0000000000
     15449       122  POPC      H6X            59.7518346777       14.3352062837       35.8667846457  MEMB      116             0.0000000000
     15450       122  POPC      H6Y            58.4975176856       13.0677367700       36.0612272788  MEMB      116             0.0000000000
     15451       122  POPC      C37            58.6701299836       14.4808071370       37.7103183918  MEMB      116             0.0000000000
     15452       122  POPC      H7X            58.7109577663       15.5768102163       37.8518933354  MEMB      116             0.0000000000
     15453       122  POPC      H7Y            59.5830562004       14.0515672554       38.1767268745  MEMB      116             0.0000000000
     15454       122  POPC      C38            57.4484068411       13.9540874407       38.4676491055  MEMB      116             0.0000000000
     15455       122  POPC      H8X            57.4061243426       12.8552398434       38.3451966556  MEMB      116             0.0000000000
     15456       122  POPC      H8Y            56.5225780114       14.3948504162       38.0375107624  MEMB      116             0.0000000000
     15457       122  POPC      C39            57.5192512181       14.2619452091       39.9694731421  MEMB      116             0.0000000000
     15458       122  POPC      H9X            56.5355281723       14.0365512252       40.4405456172  MEMB      116             0.0000000000
     15459       122  POPC      H9Y            57.6989146946       15.3527092368       40.0841111182  MEMB      116             0.0000000000
     15460       122  POPC      C310           58.6089269628       13.4516732084       40.6941996962  MEMB      116             0.0000000000
     15461       122  POPC      H10X           59.1629775121       12.8267261509       39.9587600086  MEMB      116             0.0000000000
     15462       122  POPC      H10Y           58.1261705647       12.7406142220       41.3974992565  MEMB      116             0.0000000000
     15463       122  POPC      C311           59.6244183949       14.3149157204       41.4574883309  MEMB      116             0.0000000000
     15464       122  POPC      H11X           60.1780753754       14.9458736106       40.7288477525  MEMB      116             0.0000000000
     15465       122  POPC      H11Y           60.3597195827       13.6411948882       41.9512214807  MEMB      116             0.0000000000
     15466       122  POPC      C312           58.9979572512       15.2138670528       42.5289833490  MEMB      116             0.0000000000
     15467       122  POPC      H12X           58.2261579904       15.8735026717       42.0796283071  MEMB      116             0.0000000000
     15468       122  POPC      H12Y           59.7828746264       15.8833894212       42.9471512208  MEMB      116             0.0000000000
     15469       122  POPC      C313           58.3809440662       14.4109351957       43.6788949824  MEMB      116             0.0000000000
     15470       122  POPC      H13X           59.1887324505       13.8336385339       44.1778158145  MEMB      116             0.0000000000
     15471       122  POPC      H13Y           57.6564854416       13.6671302197       43.2895577233  MEMB      116             0.0000000000
     15472       122  POPC      C314           57.7037165525       15.3183408234       44.7108243616  MEMB      116             0.0000000000
     15473       122  POPC      H14X           58.3374386826       16.2185973990       44.8559508091  MEMB      116             0.0000000000
     15474       122  POPC      H14Y           57.6599126941       14.8057602530       45.6936499848  MEMB      116             0.0000000000
     15475       122  POPC      C315           56.2690739349       15.7093486506       44.3318345305  MEMB      116             0.0000000000
     15476       122  POPC      H15X           56.2666469571       16.1925211591       43.3294175945  MEMB      116             0.0000000000
     15477       122  POPC      H15Y           55.9127127282       16.4655533552       45.0673180078  MEMB      116             0.0000000000
     15478       122  POPC      C316           55.3004344351       14.5228952548       44.3283901758  MEMB      116             0.0000000000
     15479       122  POPC      H16X           55.3592348000       13.9740463404       45.2921338822  MEMB      116             0.0000000000
     15480       122  POPC      H16Y           55.5523700111       13.8160743793       43.5117486057  MEMB      116             0.0000000000
     15481       122  POPC      H16Z           54.2574457237       14.8600395044       44.1728445736  MEMB      116             0.0000000000
     15482       123  POPC      N              19.9532352201        1.7366262098       25.1147368910  MEMB      117             0.0000000000
     15483       123  POPC      C12            21.4329153600        2.0947460581       24.9733105180  MEMB      117             0.0000000000
     15484       123  POPC      H12A           21.5438805628        2.8175280548       24.1766540643  MEMB      117             0.0000000000
     15485       123  POPC      H12B           21.9756283430        1.1869085662       24.6975743926  MEMB      117             0.0000000000
     15486       123  POPC      C13            19.8550777518        0.5325034681       26.0024899850  MEMB      117             0.0000000000
     15487       123  POPC      H13A           20.1843306853        0.8255782815       27.0031378777  MEMB      117             0.0000000000
     15488       123  POPC      H13B           18.8660807942        0.1341116347       26.0594446794  MEMB      117             0.0000000000
     15489       123  POPC      H13C           20.5509297862       -0.2331523964       25.6678568869  MEMB      117             0.0000000000
     15490       123  POPC      C14            19.1597805203        2.8765592341       25.6865013268  MEMB      117             0.0000000000
     15491       123  POPC      H14A           19.4903487836        3.1041589493       26.7004575250  MEMB      117             0.0000000000
     15492       123  POPC      H14B           19.2721743033        3.7808829834       25.0981093739  MEMB      117             0.0000000000
     15493       123  POPC      H14C           18.0911985533        2.6910793909       25.7330617736  MEMB      117             0.0000000000
     15494       123  POPC      C15            19.4368751405        1.3886507229       23.7643258794  MEMB      117             0.0000000000
     15495       123  POPC      H15A           19.3374834630        2.2696579555       23.1467188043  MEMB      117             0.0000000000
     15496       123  POPC      H15B           18.4568459909        0.9415467629       23.8435034495  MEMB      117             0.0000000000
     15497       123  POPC      H15C           20.0906151786        0.6630179899       23.2773257444  MEMB      117             0.0000000000
     15498       123  POPC      C11            22.1878147964        2.6195134916       26.2056225812  MEMB      117             0.0000000000
     15499       123  POPC      H11A           21.6982865849        3.5716494439       26.5338883985  MEMB      117             0.0000000000
     15500       123  POPC      H11B           23.2340085138        2.8738923689       25.9079225100  MEMB      117             0.0000000000
     15501       123  POPC      P              21.8517789052        1.9710187279       28.6855384463  MEMB      117             0.0000000000
     15502       123  POPC      O13            22.2333992651        3.3837367311       28.9169094413  MEMB      117             0.0000000000
     15503       123  POPC      O14            22.3303027815        0.9390072072       29.6243623012  MEMB      117             0.0000000000
     15504       123  POPC      O12            22.2400665716        1.5994298582       27.2030803358  MEMB      117             0.0000000000
     15505       123  POPC      O11            20.2675320529        1.8319467816       28.5823653158  MEMB      117             0.0000000000
     15506       123  POPC      C1             19.3624937160        2.6865969363       29.2840120962  MEMB      117             0.0000000000
     15507       123  POPC      HA             18.3595971750        2.5918661520       28.8122230979  MEMB      117             0.0000000000
     15508       123  POPC      HB             19.6399677963        3.7569510300       29.1618506158  MEMB      117             0.0000000000
     15509       123  POPC      C2             19.1896681041        2.3067001163       30.7947858857  MEMB      117             0.0000000000
     15510       123  POPC      HS             18.2806696082        2.8237520090       31.1775805896  MEMB      117             0.0000000000
     15511       123  POPC      O21            20.3247028902        2.6952727222       31.5793048251  MEMB      117             0.0000000000
     15512       123  POPC      C21            20.5937832201        3.9851473252       31.5900639101  MEMB      117             0.0000000000
     15513       123  POPC      O22            19.8082278061        4.8756515133       31.3060814886  MEMB      117             0.0000000000
     15514       123  POPC      C22            22.0219395297        4.2005169632       32.0853552935  MEMB      117             0.0000000000
     15515       123  POPC      H2R            22.5598174680        4.7555933182       31.2889449150  MEMB      117             0.0000000000
     15516       123  POPC      H2S            22.5164102343        3.2118875187       32.1843969646  MEMB      117             0.0000000000
     15517       123  POPC      C3             18.9804855139        0.7823206253       31.0108179896  MEMB      117             0.0000000000
     15518       123  POPC      HX             19.8174654175        0.2879364091       30.4593835148  MEMB      117             0.0000000000
     15519       123  POPC      HY             18.0298373607        0.4665118661       30.5326158745  MEMB      117             0.0000000000
     15520       123  POPC      O31            18.9516443921        0.4621081109       32.4279244098  MEMB      117             0.0000000000
     15521       123  POPC      C31            19.6790924616       -0.6052145896       32.7846181992  MEMB      117             0.0000000000
     15522       123  POPC      O32            20.2585667571       -1.3551217989       32.0227475513  MEMB      117             0.0000000000
     15523       123  POPC      C32            19.7055384154       -0.7278272548       34.3177123619  MEMB      117             0.0000000000
     15524       123  POPC      H2X            18.6737979359       -0.9700490317       34.6453717299  MEMB      117             0.0000000000
     15525       123  POPC      H2Y            20.0022251917        0.2560864395       34.7337513146  MEMB      117             0.0000000000
     15526       123  POPC      C23            22.0880899598        4.9723147623       33.4201762237  MEMB      117             0.0000000000
     15527       123  POPC      H3R            21.6664904917        5.9953977434       33.3047002817  MEMB      117             0.0000000000
     15528       123  POPC      H3S            23.1658999452        5.0759741511       33.6847634281  MEMB      117             0.0000000000
     15529       123  POPC      C24            21.3546333953        4.2476575469       34.5571507984  MEMB      117             0.0000000000
     15530       123  POPC      H4R            21.6309682490        3.1729542594       34.5517020477  MEMB      117             0.0000000000
     15531       123  POPC      H4S            20.2555944820        4.2944503638       34.3848254105  MEMB      117             0.0000000000
     15532       123  POPC      C25            21.6618580019        4.8256282694       35.9425060761  MEMB      117             0.0000000000
     15533       123  POPC      H5R            21.2605982866        5.8625085540       35.9913249714  MEMB      117             0.0000000000
     15534       123  POPC      H5S            22.7609993368        4.8743601515       36.1056846916  MEMB      117             0.0000000000
     15535       123  POPC      C26            21.0119543442        3.9765776480       37.0402951149  MEMB      117             0.0000000000
     15536       123  POPC      H6R            21.4683324782        2.9659880124       37.0408896491  MEMB      117             0.0000000000
     15537       123  POPC      H6S            19.9399379199        3.8490479664       36.7797243367  MEMB      117             0.0000000000
     15538       123  POPC      C27            21.1132065911        4.5946699644       38.4391776744  MEMB      117             0.0000000000
     15539       123  POPC      H7R            21.0365094469        5.7016787325       38.3348046358  MEMB      117             0.0000000000
     15540       123  POPC      H7S            22.1278209800        4.3810489248       38.8392249147  MEMB      117             0.0000000000
     15541       123  POPC      C28            20.0375898232        4.0628492401       39.4199257178  MEMB      117             0.0000000000
     15542       123  POPC      H8R            20.5174221147        3.4690340552       40.2272981036  MEMB      117             0.0000000000
     15543       123  POPC      H8S            19.3775782522        3.3568692073       38.8703796081  MEMB      117             0.0000000000
     15544       123  POPC      C29            19.1809329706        5.1652116137       39.9768117598  MEMB      117             0.0000000000
     15545       123  POPC      H91            18.5367913521        5.6335176855       39.2208702040  MEMB      117             0.0000000000
     15546       123  POPC      C210           19.0937117008        5.6458481873       41.2257549920  MEMB      117             0.0000000000
     15547       123  POPC      H101           18.4102428996        6.4878389005       41.3698591865  MEMB      117             0.0000000000
     15548       123  POPC      C211           19.8050824389        5.2632047555       42.4987663833  MEMB      117             0.0000000000
     15549       123  POPC      H11R           20.5314279808        4.4366774266       42.3685607924  MEMB      117             0.0000000000
     15550       123  POPC      H11S           19.0631777934        4.8886631796       43.2310996371  MEMB      117             0.0000000000
     15551       123  POPC      C212           20.4399586113        6.4931855800       43.1737703399  MEMB      117             0.0000000000
     15552       123  POPC      H12R           20.6363874230        6.2627384350       44.2415461233  MEMB      117             0.0000000000
     15553       123  POPC      H12S           19.7226972591        7.3459926759       43.1695969005  MEMB      117             0.0000000000
     15554       123  POPC      C213           21.7538838189        6.9569293730       42.5428846163  MEMB      117             0.0000000000
     15555       123  POPC      H13R           22.0932644708        7.8481937444       43.1189558082  MEMB      117             0.0000000000
     15556       123  POPC      H13S           21.5603381504        7.2757407227       41.4952741038  MEMB      117             0.0000000000
     15557       123  POPC      C214           22.8772583630        5.9093615196       42.5791129747  MEMB      117             0.0000000000
     15558       123  POPC      H14R           22.7015746039        5.2242952054       43.4345251241  MEMB      117             0.0000000000
     15559       123  POPC      H14S           23.8443892372        6.4284954052       42.7563246934  MEMB      117             0.0000000000
     15560       123  POPC      C215           23.0092160941        5.1225237052       41.2691284501  MEMB      117             0.0000000000
     15561       123  POPC      H15R           23.3313918619        5.8216231458       40.4642201829  MEMB      117             0.0000000000
     15562       123  POPC      H15S           22.0118218580        4.7438088141       40.9897593371  MEMB      117             0.0000000000
     15563       123  POPC      C216           23.9687108873        3.9245195095       41.3166568599  MEMB      117             0.0000000000
     15564       123  POPC      H16R           24.9668104383        4.2781046298       41.6446838453  MEMB      117             0.0000000000
     15565       123  POPC      H16S           24.0667883475        3.5102532933       40.2865176076  MEMB      117             0.0000000000
     15566       123  POPC      C217           23.5352588709        2.7810565239       42.2379518191  MEMB      117             0.0000000000
     15567       123  POPC      H17R           22.5789279490        2.3520480401       41.8717700319  MEMB      117             0.0000000000
     15568       123  POPC      H17S           23.3186835317        3.1714758230       43.2506685095  MEMB      117             0.0000000000
     15569       123  POPC      C218           24.6082820033        1.6949614723       42.3318992508  MEMB      117             0.0000000000
     15570       123  POPC      H18R           24.7295886439        1.1881840424       41.3500829504  MEMB      117             0.0000000000
     15571       123  POPC      H18S           24.3404463348        0.9371838262       43.0994620259  MEMB      117             0.0000000000
     15572       123  POPC      H18T           25.5877300672        2.1404144660       42.6132517071  MEMB      117             0.0000000000
     15573       123  POPC      C33            20.6815167805       -1.8269831536       34.8093215908  MEMB      117             0.0000000000
     15574       123  POPC      H3X            21.7336473251       -1.5081311991       34.6435786382  MEMB      117             0.0000000000
     15575       123  POPC      H3Y            20.5251991287       -2.7407161744       34.1867445040  MEMB      117             0.0000000000
     15576       123  POPC      C34            20.4730245339       -2.2643403172       36.2742015138  MEMB      117             0.0000000000
     15577       123  POPC      H4X            20.9452710634       -3.2721778144       36.3611701410  MEMB      117             0.0000000000
     15578       123  POPC      H4Y            19.3938379622       -2.3864059642       36.4995877404  MEMB      117             0.0000000000
     15579       123  POPC      C35            21.1614171872       -1.4016954588       37.3401801167  MEMB      117             0.0000000000
     15580       123  POPC      H5X            22.0809127838       -0.9693277280       36.9043019721  MEMB      117             0.0000000000
     15581       123  POPC      H5Y            21.4739744889       -2.0537030521       38.1875652436  MEMB      117             0.0000000000
     15582       123  POPC      C36            20.2977855611       -0.2878359552       37.9336967000  MEMB      117             0.0000000000
     15583       123  POPC      H6X            19.5035607391       -0.7328423723       38.5741926402  MEMB      117             0.0000000000
     15584       123  POPC      H6Y            19.8007429623        0.2700674613       37.1084369693  MEMB      117             0.0000000000
     15585       123  POPC      C37            21.1257336520        0.7069367269       38.7617287115  MEMB      117             0.0000000000
     15586       123  POPC      H7X            20.4452521003        1.4821034249       39.1644666485  MEMB      117             0.0000000000
     15587       123  POPC      H7Y            21.8455176187        1.2102725646       38.0802652377  MEMB      117             0.0000000000
     15588       123  POPC      C38            21.9542978190        0.1168161370       39.9121554537  MEMB      117             0.0000000000
     15589       123  POPC      H8X            22.5895956672        0.9342525397       40.3152711393  MEMB      117             0.0000000000
     15590       123  POPC      H8Y            22.6418549547       -0.6644760236       39.5299887095  MEMB      117             0.0000000000
     15591       123  POPC      C39            21.1487252404       -0.4963086251       41.0597597578  MEMB      117             0.0000000000
     15592       123  POPC      H9X            21.8681087598       -0.7954462063       41.8552434518  MEMB      117             0.0000000000
     15593       123  POPC      H9Y            20.6408372345       -1.4203825558       40.6995854730  MEMB      117             0.0000000000
     15594       123  POPC      C310           20.0980754762        0.4335638769       41.6747659873  MEMB      117             0.0000000000
     15595       123  POPC      H10X           19.2720329043        0.5653352447       40.9393894482  MEMB      117             0.0000000000
     15596       123  POPC      H10Y           20.5257965670        1.4373583965       41.8883214419  MEMB      117             0.0000000000
     15597       123  POPC      C311           19.5439986779       -0.1664513185       42.9709144767  MEMB      117             0.0000000000
     15598       123  POPC      H11X           20.2908254250       -0.0796725089       43.7881850562  MEMB      117             0.0000000000
     15599       123  POPC      H11Y           19.3895526131       -1.2526024294       42.7890337166  MEMB      117             0.0000000000
     15600       123  POPC      C312           18.1884009494        0.4101827991       43.3853980878  MEMB      117             0.0000000000
     15601       123  POPC      H12X           17.5190131179       -0.4502357709       43.5893333345  MEMB      117             0.0000000000
     15602       123  POPC      H12Y           17.7509535430        0.9573585896       42.5251065498  MEMB      117             0.0000000000
     15603       123  POPC      C313           18.2157692778        1.2816169641       44.6485282154  MEMB      117             0.0000000000
     15604       123  POPC      H13X           17.8985801554        2.3157604788       44.3980923592  MEMB      117             0.0000000000
     15605       123  POPC      H13Y           19.2610581763        1.3531249336       45.0121196747  MEMB      117             0.0000000000
     15606       123  POPC      C314           17.3133765466        0.7328272927       45.7678771176  MEMB      117             0.0000000000
     15607       123  POPC      H14X           17.0613271801       -0.3277429284       45.5554522187  MEMB      117             0.0000000000
     15608       123  POPC      H14Y           16.3600154083        1.2899135891       45.8111015342  MEMB      117             0.0000000000
     15609       123  POPC      C315           17.9643646371        0.7239460703       47.1478913379  MEMB      117             0.0000000000
     15610       123  POPC      H15X           17.1857667914        0.4522390204       47.8986744372  MEMB      117             0.0000000000
     15611       123  POPC      H15Y           18.3434363716        1.7354727124       47.4077633998  MEMB      117             0.0000000000
     15612       123  POPC      C316           19.0853731806       -0.3054759386       47.2123183388  MEMB      117             0.0000000000
     15613       123  POPC      H16X           18.7212882036       -1.2959439623       46.8681897075  MEMB      117             0.0000000000
     15614       123  POPC      H16Y           19.4599876503       -0.4206506666       48.2466714298  MEMB      117             0.0000000000
     15615       123  POPC      H16Z           19.9419487442       -0.0149661399       46.5692559568  MEMB      117             0.0000000000
     15616       124  POPS      N               7.1350735579       12.4062157543       24.6924878384  MEMB      118             0.0000000000
     15617       124  POPS      HN1             6.5343799013       13.0866030602       24.1712906199  MEMB      118             0.0000000000
     15618       124  POPS      HN2             8.1311182803       12.7104764600       24.6639815480  MEMB      118             0.0000000000
     15619       124  POPS      HN3             7.0142467212       11.4170449556       24.3860114102  MEMB      118             0.0000000000
     15620       124  POPS      C12             6.7415681805       12.5405213105       26.1290263554  MEMB      118             0.0000000000
     15621       124  POPS      H12A            5.9398273350       11.8482893046       26.3124386513  MEMB      118             0.0000000000
     15622       124  POPS      C13             6.1209738416       13.9064465447       26.4003596223  MEMB      118             0.0000000000
     15623       124  POPS      O13A            5.6196288457       14.4946883901       25.4048095068  MEMB      118             0.0000000000
     15624       124  POPS      O13B            6.1081743523       14.3754343055       27.5628916438  MEMB      118             0.0000000000
     15625       124  POPS      C11             7.9514979745       12.1614181029       27.0171405092  MEMB      118             0.0000000000
     15626       124  POPS      H11A            7.6478816689       12.1017589117       28.0846177035  MEMB      118             0.0000000000
     15627       124  POPS      H11B            8.7144956126       12.9691058512       26.9584274336  MEMB      118             0.0000000000
     15628       124  POPS      P               7.8483432736        9.5226775404       26.5099241523  MEMB      118             0.0000000000
     15629       124  POPS      O13             8.8433116787        8.6492020491       25.8636609301  MEMB      118             0.0000000000
     15630       124  POPS      O14             6.5524479602        9.6452830209       25.7841109235  MEMB      118             0.0000000000
     15631       124  POPS      O12             8.5428194021       10.9441075385       26.5770811512  MEMB      118             0.0000000000
     15632       124  POPS      O11             7.6379506945        9.1042825214       27.9907050490  MEMB      118             0.0000000000
     15633       124  POPS      C1              6.6492537732        9.6485227425       28.8520224809  MEMB      118             0.0000000000
     15634       124  POPS      HA              5.7666235318        8.9781216486       28.8220348541  MEMB      118             0.0000000000
     15635       124  POPS      HB              6.2884720719       10.6603603407       28.5690443761  MEMB      118             0.0000000000
     15636       124  POPS      C2              7.2281487315        9.6750784582       30.2853667434  MEMB      118             0.0000000000
     15637       124  POPS      HS              6.3731740750        9.5863245785       30.9849388366  MEMB      118             0.0000000000
     15638       124  POPS      O21             7.9404317076       10.9181273444       30.4856954019  MEMB      118             0.0000000000
     15639       124  POPS      C21             8.0394008041       11.3287843827       31.7450375133  MEMB      118             0.0000000000
     15640       124  POPS      O22             7.5975563879       10.7528121447       32.7235271789  MEMB      118             0.0000000000
     15641       124  POPS      C22             8.7652946187       12.6727511183       31.7708527263  MEMB      118             0.0000000000
     15642       124  POPS      H2R             8.2545103014       13.3701414579       31.0767149997  MEMB      118             0.0000000000
     15643       124  POPS      H2S             9.7967873918       12.4868775911       31.4038892254  MEMB      118             0.0000000000
     15644       124  POPS      C3              8.1420914281        8.4234408597       30.4549932694  MEMB      118             0.0000000000
     15645       124  POPS      HX              9.0598443423        8.5690525189       29.8374759196  MEMB      118             0.0000000000
     15646       124  POPS      HY              7.5887646691        7.5649309843       30.0113191055  MEMB      118             0.0000000000
     15647       124  POPS      O31             8.3896180254        8.1093110952       31.8343725375  MEMB      118             0.0000000000
     15648       124  POPS      C31             9.6163037631        8.2957541760       32.2762770251  MEMB      118             0.0000000000
     15649       124  POPS      O32            10.5820748264        8.6169135554       31.6057278327  MEMB      118             0.0000000000
     15650       124  POPS      C32             9.5935993947        8.0719888056       33.7909679023  MEMB      118             0.0000000000
     15651       124  POPS      H2X             9.4948928987        6.9859865950       33.9890635534  MEMB      118             0.0000000000
     15652       124  POPS      H2Y             8.6709065986        8.5745444921       34.1571188922  MEMB      118             0.0000000000
     15653       124  POPS      C23             8.8027630115       13.2618539963       33.1937751379  MEMB      118             0.0000000000
     15654       124  POPS      H3R             9.5116712104       14.1192178776       33.2073624306  MEMB      118             0.0000000000
     15655       124  POPS      H3S             9.1969560028       12.4951867601       33.8997659700  MEMB      118             0.0000000000
     15656       124  POPS      C24             7.4383262868       13.7606488102       33.6970969720  MEMB      118             0.0000000000
     15657       124  POPS      H4R             6.6042106418       13.3228111868       33.1043021514  MEMB      118             0.0000000000
     15658       124  POPS      H4S             7.3986453723       14.8637349819       33.5530389134  MEMB      118             0.0000000000
     15659       124  POPS      C25             7.2026373201       13.4196470531       35.1779754984  MEMB      118             0.0000000000
     15660       124  POPS      H5R             8.1561646226       13.5561301426       35.7340792478  MEMB      118             0.0000000000
     15661       124  POPS      H5S             6.9248437495       12.3477061100       35.2826382475  MEMB      118             0.0000000000
     15662       124  POPS      C26             6.1339848218       14.3173052807       35.8137255308  MEMB      118             0.0000000000
     15663       124  POPS      H6R             5.1299688454       14.0783265399       35.3999756194  MEMB      118             0.0000000000
     15664       124  POPS      H6S             6.3802266836       15.3638372742       35.5287754529  MEMB      118             0.0000000000
     15665       124  POPS      C27             6.1058964312       14.2601158267       37.3483121369  MEMB      118             0.0000000000
     15666       124  POPS      H7R             5.6531397811       15.2107140501       37.7180407684  MEMB      118             0.0000000000
     15667       124  POPS      H7S             7.1536253398       14.2176191484       37.7226351499  MEMB      118             0.0000000000
     15668       124  POPS      C28             5.2941573909       13.0755303204       37.8986498079  MEMB      118             0.0000000000
     15669       124  POPS      H8R             5.6880249627       12.1341730753       37.4533387496  MEMB      118             0.0000000000
     15670       124  POPS      H8S             4.2418363936       13.1976480492       37.5607445290  MEMB      118             0.0000000000
     15671       124  POPS      C29             5.3510361729       13.0632860124       39.4040893353  MEMB      118             0.0000000000
     15672       124  POPS      H91             5.2675892964       14.0589119038       39.8640893119  MEMB      118             0.0000000000
     15673       124  POPS      C210            5.4774345412       12.0024443473       40.2195595802  MEMB      118             0.0000000000
     15674       124  POPS      H101            5.5963915031       12.1985510178       41.2923030182  MEMB      118             0.0000000000
     15675       124  POPS      C211            5.5958148512       10.5384671559       39.8739965223  MEMB      118             0.0000000000
     15676       124  POPS      H11R            5.6007358947       10.3545951278       38.7762292002  MEMB      118             0.0000000000
     15677       124  POPS      H11S            4.7479525089        9.9683382869       40.3138039229  MEMB      118             0.0000000000
     15678       124  POPS      C212            6.8944695255       10.0125714039       40.4909256813  MEMB      118             0.0000000000
     15679       124  POPS      H12R            6.9328333413       10.2541617677       41.5783524797  MEMB      118             0.0000000000
     15680       124  POPS      H12S            7.7340824422       10.5481297434       39.9945400104  MEMB      118             0.0000000000
     15681       124  POPS      C213            7.1156904224        8.5019935923       40.3306227166  MEMB      118             0.0000000000
     15682       124  POPS      H13R            6.7334449704        8.1804796190       39.3360309852  MEMB      118             0.0000000000
     15683       124  POPS      H13S            6.5392546379        7.9534816781       41.1074966462  MEMB      118             0.0000000000
     15684       124  POPS      C214            8.6065612512        8.1464483670       40.4151564819  MEMB      118             0.0000000000
     15685       124  POPS      H14R            9.1165795684        8.6548406089       39.5644126878  MEMB      118             0.0000000000
     15686       124  POPS      H14S            8.7648306965        7.0579556226       40.2720417046  MEMB      118             0.0000000000
     15687       124  POPS      C215            9.2871794356        8.5972625141       41.7162189202  MEMB      118             0.0000000000
     15688       124  POPS      H15R            9.0403766931        7.9075333701       42.5507193247  MEMB      118             0.0000000000
     15689       124  POPS      H15S            8.9327139326        9.6038096296       42.0168850464  MEMB      118             0.0000000000
     15690       124  POPS      C216           10.8059373261        8.6855263518       41.5503799838  MEMB      118             0.0000000000
     15691       124  POPS      H16R           11.0707383459        9.2174710812       40.6206899299  MEMB      118             0.0000000000
     15692       124  POPS      H16S           11.1714262155        7.6702809225       41.3746583731  MEMB      118             0.0000000000
     15693       124  POPS      C217           11.4845498163        9.3774752793       42.7364716518  MEMB      118             0.0000000000
     15694       124  POPS      H17R           11.2905446257        8.7653345974       43.6443419925  MEMB      118             0.0000000000
     15695       124  POPS      H17S           11.0003854048       10.3701294614       42.8847911169  MEMB      118             0.0000000000
     15696       124  POPS      C218           12.9918767018        9.5858487525       42.5836200702  MEMB      118             0.0000000000
     15697       124  POPS      H18R           13.4031111290       10.1312499418       43.4600957629  MEMB      118             0.0000000000
     15698       124  POPS      H18S           13.2213025815       10.1661107318       41.6646866911  MEMB      118             0.0000000000
     15699       124  POPS      H18T           13.5013823916        8.6045754701       42.5168390324  MEMB      118             0.0000000000
     15700       124  POPS      C33            10.8018620304        8.6612599000       34.5492051830  MEMB      118             0.0000000000
     15701       124  POPS      H3X            11.2115334172        9.5508946118       34.0211408702  MEMB      118             0.0000000000
     15702       124  POPS      H3Y            11.6149844845        7.8993444973       34.5950435876  MEMB      118             0.0000000000
     15703       124  POPS      C34            10.4334524457        9.1019894121       35.9787601501  MEMB      118             0.0000000000
     15704       124  POPS      H4X            11.3904046623        9.1766134618       36.5338596659  MEMB      118             0.0000000000
     15705       124  POPS      H4Y             9.8213051446        8.3172991985       36.4742935737  MEMB      118             0.0000000000
     15706       124  POPS      C35             9.7123988529       10.4657240796       36.0565900537  MEMB      118             0.0000000000
     15707       124  POPS      H5X             8.7364712025       10.3940393886       35.5244722449  MEMB      118             0.0000000000
     15708       124  POPS      H5Y            10.3269276438       11.2195527814       35.5205475306  MEMB      118             0.0000000000
     15709       124  POPS      C36             9.4522220028       10.9835918024       37.4891949651  MEMB      118             0.0000000000
     15710       124  POPS      H6X             8.7689231590       10.2658386979       37.9923568966  MEMB      118             0.0000000000
     15711       124  POPS      H6Y             8.9270346327       11.9633270942       37.4384681034  MEMB      118             0.0000000000
     15712       124  POPS      C37            10.7298613117       11.1430475799       38.3346841397  MEMB      118             0.0000000000
     15713       124  POPS      H7X            11.4180106642       11.8748800629       37.8628414438  MEMB      118             0.0000000000
     15714       124  POPS      H7Y            11.2259419383       10.1481015231       38.3433589343  MEMB      118             0.0000000000
     15715       124  POPS      C38            10.5273821081       11.4973653493       39.8185777145  MEMB      118             0.0000000000
     15716       124  POPS      H8X            11.4947234692       11.3134133952       40.3427817597  MEMB      118             0.0000000000
     15717       124  POPS      H8Y             9.7706260313       10.8164506107       40.2526452224  MEMB      118             0.0000000000
     15718       124  POPS      C39            10.1141737109       12.9246414192       40.1468485651  MEMB      118             0.0000000000
     15719       124  POPS      H9X             9.0989025336       13.1180335515       39.7360527754  MEMB      118             0.0000000000
     15720       124  POPS      H9Y            10.8348423918       13.6072111867       39.6422252712  MEMB      118             0.0000000000
     15721       124  POPS      C310           10.1384920820       13.2074384776       41.6659175009  MEMB      118             0.0000000000
     15722       124  POPS      H10X           10.2773694858       14.2973337608       41.8268934277  MEMB      118             0.0000000000
     15723       124  POPS      H10Y           11.0142830215       12.6967550465       42.1217711497  MEMB      118             0.0000000000
     15724       124  POPS      C311            8.8563784961       12.7918436810       42.4066287100  MEMB      118             0.0000000000
     15725       124  POPS      H11X            8.6501740517       11.7217265231       42.1931473323  MEMB      118             0.0000000000
     15726       124  POPS      H11Y            8.0020846950       13.3819751616       42.0058408036  MEMB      118             0.0000000000
     15727       124  POPS      C312            8.9333498354       12.9831920457       43.9364272019  MEMB      118             0.0000000000
     15728       124  POPS      H12X            9.2052143127       14.0337685386       44.1778323086  MEMB      118             0.0000000000
     15729       124  POPS      H12Y            9.7390532686       12.3263367215       44.3315279976  MEMB      118             0.0000000000
     15730       124  POPS      C313            7.6043639345       12.6265806970       44.6246158456  MEMB      118             0.0000000000
     15731       124  POPS      H13X            7.2496859364       11.6781629076       44.1579417075  MEMB      118             0.0000000000
     15732       124  POPS      H13Y            6.8527452057       13.4148075658       44.3972498032  MEMB      118             0.0000000000
     15733       124  POPS      C314            7.6754362947       12.3903611640       46.1484262892  MEMB      118             0.0000000000
     15734       124  POPS      H14X            8.7214148239       12.4810822668       46.4986195598  MEMB      118             0.0000000000
     15735       124  POPS      H14Y            7.3625904474       11.3434781761       46.3595510657  MEMB      118             0.0000000000
     15736       124  POPS      C315            6.7746669766       13.3208413424       46.9805664678  MEMB      118             0.0000000000
     15737       124  POPS      H15X            5.7397424762       13.2399669496       46.5999249726  MEMB      118             0.0000000000
     15738       124  POPS      H15Y            7.0887096288       14.3746742041       46.8418707619  MEMB      118             0.0000000000
     15739       124  POPS      C316            6.7370819233       13.0019248939       48.4755809134  MEMB      118             0.0000000000
     15740       124  POPS      H16X            7.7376523869       13.1162300030       48.9327913153  MEMB      118             0.0000000000
     15741       124  POPS      H16Y            6.4074461072       11.9542724481       48.6307541834  MEMB      118             0.0000000000
     15742       124  POPS      H16Z            6.0320008570       13.6769770675       49.0055552101  MEMB      118             0.0000000000
     15743       125  POPC      N              65.0119191572       46.9482084507       25.9992470886  MEMB      119             0.0000000000
     15744       125  POPC      C12            65.2113584624       47.6567942566       27.3389757846  MEMB      119             0.0000000000
     15745       125  POPC      H12A           65.7548058026       48.5871440476       27.1685559574  MEMB      119             0.0000000000
     15746       125  POPC      H12B           65.8367268406       47.0666343577       27.9967490852  MEMB      119             0.0000000000
     15747       125  POPC      C13            66.2862964842       46.6868299439       25.2977512629  MEMB      119             0.0000000000
     15748       125  POPC      H13A           66.9144479094       46.0082260907       25.8433568326  MEMB      119             0.0000000000
     15749       125  POPC      H13B           66.0597852730       46.2930445845       24.3122824714  MEMB      119             0.0000000000
     15750       125  POPC      H13C           66.8144002937       47.6192462540       25.1316717271  MEMB      119             0.0000000000
     15751       125  POPC      C14            64.1804510827       45.6986909043       26.1341012442  MEMB      119             0.0000000000
     15752       125  POPC      H14A           63.2271500616       45.9559050122       26.6046765998  MEMB      119             0.0000000000
     15753       125  POPC      H14B           63.9410319651       45.2742588238       25.1591762102  MEMB      119             0.0000000000
     15754       125  POPC      H14C           64.6578550195       44.9274222968       26.7204164012  MEMB      119             0.0000000000
     15755       125  POPC      C15            64.2563180185       47.8832869333       25.1005616483  MEMB      119             0.0000000000
     15756       125  POPC      H15A           64.7187063112       48.8644002089       25.0789162070  MEMB      119             0.0000000000
     15757       125  POPC      H15B           63.2820067048       48.0740327031       25.5558879424  MEMB      119             0.0000000000
     15758       125  POPC      H15C           64.1146509448       47.4905905558       24.1060581970  MEMB      119             0.0000000000
     15759       125  POPC      C11            63.9243567778       48.0485759081       28.1154386518  MEMB      119             0.0000000000
     15760       125  POPC      H11A           64.2047110368       48.5190638896       29.0901297576  MEMB      119             0.0000000000
     15761       125  POPC      H11B           63.3492670985       47.1293415618       28.3700876611  MEMB      119             0.0000000000
     15762       125  POPC      P              63.0412125384       50.4602977633       27.5034694360  MEMB      119             0.0000000000
     15763       125  POPC      O13            62.0997731819       50.9784040779       26.4827630158  MEMB      119             0.0000000000
     15764       125  POPC      O14            64.4216855328       51.0064399962       27.4769509625  MEMB      119             0.0000000000
     15765       125  POPC      O12            63.0938274151       48.8972566541       27.3297311042  MEMB      119             0.0000000000
     15766       125  POPC      O11            62.4194316004       50.5693279908       28.9471813093  MEMB      119             0.0000000000
     15767       125  POPC      C1             62.4664692476       51.7296926092       29.7751522061  MEMB      119             0.0000000000
     15768       125  POPC      HA             61.4566490116       52.1408847191       29.9293710631  MEMB      119             0.0000000000
     15769       125  POPC      HB             63.0506317789       52.5586659944       29.3381688677  MEMB      119             0.0000000000
     15770       125  POPC      C2             62.9559123713       51.3548182408       31.1838774865  MEMB      119             0.0000000000
     15771       125  POPC      HS             62.9340395808       52.2558786357       31.8366957223  MEMB      119             0.0000000000
     15772       125  POPC      O21            64.2713489565       50.8317214469       31.0974881329  MEMB      119             0.0000000000
     15773       125  POPC      C21            65.1484136659       51.6444888668       30.5608394997  MEMB      119             0.0000000000
     15774       125  POPC      O22            65.1319454911       52.8669768193       30.5845023840  MEMB      119             0.0000000000
     15775       125  POPC      C22            66.2258339776       50.8107196460       29.9239714183  MEMB      119             0.0000000000
     15776       125  POPC      H2R            66.4372299778       51.2377750523       28.9217832481  MEMB      119             0.0000000000
     15777       125  POPC      H2S            65.8748340092       49.7677993530       29.7858457594  MEMB      119             0.0000000000
     15778       125  POPC      C3             62.0367477020       50.2713369971       31.7974304686  MEMB      119             0.0000000000
     15779       125  POPC      HX             62.0829225633       49.3533738285       31.1647817588  MEMB      119             0.0000000000
     15780       125  POPC      HY             60.9926142947       50.6462097440       31.7491155470  MEMB      119             0.0000000000
     15781       125  POPC      O31            62.3682332720       50.0354744792       33.1756923943  MEMB      119             0.0000000000
     15782       125  POPC      C31            63.1608588460       49.0008686324       33.4230195729  MEMB      119             0.0000000000
     15783       125  POPC      O32            63.5683093638       48.1862139728       32.6188320935  MEMB      119             0.0000000000
     15784       125  POPC      C32            63.4922892997       48.9889782600       34.9165153629  MEMB      119             0.0000000000
     15785       125  POPC      H2X            63.2736949037       49.9775196391       35.3635669702  MEMB      119             0.0000000000
     15786       125  POPC      H2Y            64.5797108364       48.8027547080       34.9924913306  MEMB      119             0.0000000000
     15787       125  POPC      C23            67.4722711482       50.8492611591       30.7975136847  MEMB      119             0.0000000000
     15788       125  POPC      H3R            67.7817515530       51.8918743680       31.0258931465  MEMB      119             0.0000000000
     15789       125  POPC      H3S            68.2645953224       50.4025289575       30.1573198085  MEMB      119             0.0000000000
     15790       125  POPC      C24            67.3603451591       50.0233250872       32.0932342931  MEMB      119             0.0000000000
     15791       125  POPC      H4R            68.3852347594       49.8037503339       32.4628824893  MEMB      119             0.0000000000
     15792       125  POPC      H4S            66.8838362158       49.0410343333       31.8770810519  MEMB      119             0.0000000000
     15793       125  POPC      C25            66.6205825812       50.7167433686       33.2421093788  MEMB      119             0.0000000000
     15794       125  POPC      H5R            65.5303023069       50.7128772979       33.0351297730  MEMB      119             0.0000000000
     15795       125  POPC      H5S            66.9480553256       51.7761513633       33.3338298379  MEMB      119             0.0000000000
     15796       125  POPC      C26            66.8296931435       50.0012112244       34.5794966703  MEMB      119             0.0000000000
     15797       125  POPC      H6R            66.6751500720       48.9114160132       34.4535007052  MEMB      119             0.0000000000
     15798       125  POPC      H6S            66.0289456495       50.3448668996       35.2707425902  MEMB      119             0.0000000000
     15799       125  POPC      C27            68.2000813363       50.2729407162       35.2092752519  MEMB      119             0.0000000000
     15800       125  POPC      H7R            68.7610623274       51.0007902467       34.5792757473  MEMB      119             0.0000000000
     15801       125  POPC      H7S            68.7912202933       49.3303144543       35.2191816351  MEMB      119             0.0000000000
     15802       125  POPC      C28            68.0900463801       50.8214072224       36.6408755949  MEMB      119             0.0000000000
     15803       125  POPC      H8R            69.1181787271       51.0054724460       37.0205333508  MEMB      119             0.0000000000
     15804       125  POPC      H8S            67.6416033747       50.0354782071       37.2875330350  MEMB      119             0.0000000000
     15805       125  POPC      C29            67.2991928367       52.1055029259       36.6508440485  MEMB      119             0.0000000000
     15806       125  POPC      H91            67.7143400093       52.9015932223       36.0164010762  MEMB      119             0.0000000000
     15807       125  POPC      C210           66.1620302520       52.3582830633       37.3137057461  MEMB      119             0.0000000000
     15808       125  POPC      H101           65.7569646896       53.3788593704       37.2655596563  MEMB      119             0.0000000000
     15809       125  POPC      C211           65.3921910035       51.4304708552       38.2179911877  MEMB      119             0.0000000000
     15810       125  POPC      H11R           65.9526277307       50.5019648924       38.4660450813  MEMB      119             0.0000000000
     15811       125  POPC      H11S           64.4246566643       51.1346320064       37.7554618950  MEMB      119             0.0000000000
     15812       125  POPC      C212           65.1207837871       52.2033744166       39.5159104002  MEMB      119             0.0000000000
     15813       125  POPC      H12R           64.4646577158       53.0796884207       39.3011114980  MEMB      119             0.0000000000
     15814       125  POPC      H12S           66.0891952354       52.5937394874       39.9051200242  MEMB      119             0.0000000000
     15815       125  POPC      C213           64.4613019679       51.3651376949       40.6172984718  MEMB      119             0.0000000000
     15816       125  POPC      H13R           65.1642593011       50.5739047780       40.9593939649  MEMB      119             0.0000000000
     15817       125  POPC      H13S           63.5586377027       50.8610799736       40.2040068276  MEMB      119             0.0000000000
     15818       125  POPC      C214           64.0425291121       52.2308644810       41.8144700991  MEMB      119             0.0000000000
     15819       125  POPC      H14R           63.4632824903       51.6140133333       42.5371766691  MEMB      119             0.0000000000
     15820       125  POPC      H14S           63.3660524146       53.0269719048       41.4356931409  MEMB      119             0.0000000000
     15821       125  POPC      C215           65.2219443305       52.8981229161       42.5406545547  MEMB      119             0.0000000000
     15822       125  POPC      H15R           65.9129112316       53.3597577221       41.8019872657  MEMB      119             0.0000000000
     15823       125  POPC      H15S           65.8043641259       52.1251683010       43.0882182250  MEMB      119             0.0000000000
     15824       125  POPC      C216           64.7951405981       54.0275842955       43.4900292284  MEMB      119             0.0000000000
     15825       125  POPC      H16R           64.2743512367       54.8147721781       42.8996999512  MEMB      119             0.0000000000
     15826       125  POPC      H16S           65.7142255989       54.4935296208       43.9050320228  MEMB      119             0.0000000000
     15827       125  POPC      C217           63.8891010022       53.5979097176       44.6511654744  MEMB      119             0.0000000000
     15828       125  POPC      H17R           62.8824498170       53.3448003513       44.2457296079  MEMB      119             0.0000000000
     15829       125  POPC      H17S           63.7612017983       54.4723452512       45.3296886398  MEMB      119             0.0000000000
     15830       125  POPC      C218           64.4092893766       52.4063071852       45.4553828417  MEMB      119             0.0000000000
     15831       125  POPC      H18R           63.8347753015       52.2745551683       46.3960248770  MEMB      119             0.0000000000
     15832       125  POPC      H18S           65.4791751224       52.5318062563       45.7162399603  MEMB      119             0.0000000000
     15833       125  POPC      H18T           64.3064231123       51.4789966969       44.8550195398  MEMB      119             0.0000000000
     15834       125  POPC      C33            62.8019190820       47.8487519598       35.6943967137  MEMB      119             0.0000000000
     15835       125  POPC      H3X            63.2229044916       47.8250505068       36.7263828383  MEMB      119             0.0000000000
     15836       125  POPC      H3Y            63.0517777542       46.8728363349       35.2179426552  MEMB      119             0.0000000000
     15837       125  POPC      C34            61.2795349352       47.9895856288       35.7885863905  MEMB      119             0.0000000000
     15838       125  POPC      H4X            60.8841269649       47.0860060207       36.3024525582  MEMB      119             0.0000000000
     15839       125  POPC      H4Y            60.8372685074       47.9912346983       34.7653558908  MEMB      119             0.0000000000
     15840       125  POPC      C35            60.7815707691       49.2332285678       36.5459520305  MEMB      119             0.0000000000
     15841       125  POPC      H5X            59.6660929797       49.2194624388       36.5015518654  MEMB      119             0.0000000000
     15842       125  POPC      H5Y            61.1161755486       50.1532150050       36.0219474633  MEMB      119             0.0000000000
     15843       125  POPC      C36            61.1873091387       49.2995299888       38.0313576474  MEMB      119             0.0000000000
     15844       125  POPC      H6X            60.6046450842       50.1226209004       38.5061801648  MEMB      119             0.0000000000
     15845       125  POPC      H6Y            62.2646698527       49.5508103086       38.1308321384  MEMB      119             0.0000000000
     15846       125  POPC      C37            60.8903063549       47.9941330620       38.7837069014  MEMB      119             0.0000000000
     15847       125  POPC      H7X            61.6874971145       47.2452434005       38.5857453397  MEMB      119             0.0000000000
     15848       125  POPC      H7Y            59.9373204220       47.5877921995       38.3822106440  MEMB      119             0.0000000000
     15849       125  POPC      C38            60.7020095441       48.1541711447       40.2970371132  MEMB      119             0.0000000000
     15850       125  POPC      H8X            59.8966772565       48.9014253975       40.4822404072  MEMB      119             0.0000000000
     15851       125  POPC      H8Y            61.6409174284       48.5387149225       40.7513670131  MEMB      119             0.0000000000
     15852       125  POPC      C39            60.2934281115       46.8246127431       40.9554996228  MEMB      119             0.0000000000
     15853       125  POPC      H9X            61.1453240243       46.1141493685       40.8902481530  MEMB      119             0.0000000000
     15854       125  POPC      H9Y            59.4550658525       46.3849899613       40.3681776658  MEMB      119             0.0000000000
     15855       125  POPC      C310           59.8245302201       46.9660230459       42.4136299756  MEMB      119             0.0000000000
     15856       125  POPC      H10X           59.4716574269       45.9787953400       42.7870846673  MEMB      119             0.0000000000
     15857       125  POPC      H10Y           58.9546201751       47.6616330346       42.4320062542  MEMB      119             0.0000000000
     15858       125  POPC      C311           60.9046682639       47.5046178184       43.3609601610  MEMB      119             0.0000000000
     15859       125  POPC      H11X           60.4355364399       47.8064428457       44.3248761422  MEMB      119             0.0000000000
     15860       125  POPC      H11Y           61.3448641760       48.4222997181       42.9141752003  MEMB      119             0.0000000000
     15861       125  POPC      C312           62.0184088826       46.4892117493       43.6549667135  MEMB      119             0.0000000000
     15862       125  POPC      H12X           62.1862233177       45.8339580023       42.7723187230  MEMB      119             0.0000000000
     15863       125  POPC      H12Y           61.6900746487       45.8343070631       44.4932322311  MEMB      119             0.0000000000
     15864       125  POPC      C313           63.3601433043       47.1461597393       44.0088372371  MEMB      119             0.0000000000
     15865       125  POPC      H13X           63.8223113524       47.5401749931       43.0752021417  MEMB      119             0.0000000000
     15866       125  POPC      H13Y           64.0416545957       46.3666374420       44.4163767716  MEMB      119             0.0000000000
     15867       125  POPC      C314           63.2211267755       48.2929479196       45.0186306178  MEMB      119             0.0000000000
     15868       125  POPC      H14X           62.5482791749       47.9697603782       45.8421691272  MEMB      119             0.0000000000
     15869       125  POPC      H14Y           62.7488555803       49.1673061715       44.5166708980  MEMB      119             0.0000000000
     15870       125  POPC      C315           64.5526645307       48.7417398556       45.6265892620  MEMB      119             0.0000000000
     15871       125  POPC      H15X           64.8955623933       47.9480859254       46.3249832406  MEMB      119             0.0000000000
     15872       125  POPC      H15Y           64.3749737128       49.6469715702       46.2482603850  MEMB      119             0.0000000000
     15873       125  POPC      C316           65.6480392866       49.0316614817       44.5966979538  MEMB      119             0.0000000000
     15874       125  POPC      H16X           65.3152855035       49.7917790356       43.8582570407  MEMB      119             0.0000000000
     15875       125  POPC      H16Y           65.9302295718       48.1116853974       44.0409210906  MEMB      119             0.0000000000
     15876       125  POPC      H16Z           66.5572463176       49.4127456095       45.1061927402  MEMB      119             0.0000000000
     15877       126  POPC      N               3.7106089536       53.1075893222       25.7779004805  MEMB      120             0.0000000000
     15878       126  POPC      C12             4.8511604349       52.6608385122       26.6887681225  MEMB      120             0.0000000000
     15879       126  POPC      H12A            5.2985040241       53.5213801318       27.1661648310  MEMB      120             0.0000000000
     15880       126  POPC      H12B            5.6472951782       52.2513478178       26.0519254643  MEMB      120             0.0000000000
     15881       126  POPC      C13             2.5536549275       53.6505235984       26.5504434297  MEMB      120             0.0000000000
     15882       126  POPC      H13A            2.8106910378       54.5359234164       27.1128590107  MEMB      120             0.0000000000
     15883       126  POPC      H13B            1.7239838863       53.8709017302       25.8876703090  MEMB      120             0.0000000000
     15884       126  POPC      H13C            2.2481081104       52.8834710130       27.2593329566  MEMB      120             0.0000000000
     15885       126  POPC      C14             4.2598313282       54.1085188617       24.8171303720  MEMB      120             0.0000000000
     15886       126  POPC      H14A            4.5588118742       55.0267916305       25.3030366032  MEMB      120             0.0000000000
     15887       126  POPC      H14B            5.1830938260       53.7169177330       24.3678668137  MEMB      120             0.0000000000
     15888       126  POPC      H14C            3.5794689948       54.3505920742       24.0165724096  MEMB      120             0.0000000000
     15889       126  POPC      C15             3.2627362504       51.9130397024       24.9939099617  MEMB      120             0.0000000000
     15890       126  POPC      H15A            2.5189328186       52.1458674236       24.2562372225  MEMB      120             0.0000000000
     15891       126  POPC      H15B            2.8823720746       51.1413770325       25.6647786244  MEMB      120             0.0000000000
     15892       126  POPC      H15C            4.1255929252       51.4379030853       24.5227082891  MEMB      120             0.0000000000
     15893       126  POPC      C11             4.5825883645       51.5405698130       27.7294278587  MEMB      120             0.0000000000
     15894       126  POPC      H11A            3.7567207238       51.8365635147       28.4086686654  MEMB      120             0.0000000000
     15895       126  POPC      H11B            5.4961469948       51.4399566474       28.3641895877  MEMB      120             0.0000000000
     15896       126  POPC      P               5.4539662660       49.5032777671       26.3909331605  MEMB      120             0.0000000000
     15897       126  POPC      O13             6.0183067841       50.4059734839       25.3633376738  MEMB      120             0.0000000000
     15898       126  POPC      O14             4.9040750845       48.2169541701       25.9022966421  MEMB      120             0.0000000000
     15899       126  POPC      O12             4.2599633433       50.2918074644       27.1058500715  MEMB      120             0.0000000000
     15900       126  POPC      O11             6.4753970689       49.2533554241       27.5611546702  MEMB      120             0.0000000000
     15901       126  POPC      C1              6.4820385995       48.0009564710       28.2486103382  MEMB      120             0.0000000000
     15902       126  POPC      HA              7.4181532978       47.9310215645       28.8229982075  MEMB      120             0.0000000000
     15903       126  POPC      HB              6.4605488801       47.1382528470       27.5433593436  MEMB      120             0.0000000000
     15904       126  POPC      C2              5.3342219041       47.9055600506       29.2727396215  MEMB      120             0.0000000000
     15905       126  POPC      HS              4.3951602187       47.9942896999       28.6740695357  MEMB      120             0.0000000000
     15906       126  POPC      O21             5.4822950013       49.0147126789       30.1872924925  MEMB      120             0.0000000000
     15907       126  POPC      C21             4.3543624980       49.2866245659       30.7882257084  MEMB      120             0.0000000000
     15908       126  POPC      O22             3.3373488546       48.6080592365       30.7100291227  MEMB      120             0.0000000000
     15909       126  POPC      C22             4.4579613339       50.6342854903       31.5520919778  MEMB      120             0.0000000000
     15910       126  POPC      H2R             4.3830096005       50.4245161772       32.6351726919  MEMB      120             0.0000000000
     15911       126  POPC      H2S             3.5624549458       51.2080395670       31.2638571651  MEMB      120             0.0000000000
     15912       126  POPC      C3              5.3106950594       46.5275442052       30.0250648842  MEMB      120             0.0000000000
     15913       126  POPC      HX              5.7722397492       45.7537739247       29.3742393812  MEMB      120             0.0000000000
     15914       126  POPC      HY              4.2236391047       46.2831437856       30.1140224741  MEMB      120             0.0000000000
     15915       126  POPC      O31             5.9640056468       46.5482199448       31.3211795699  MEMB      120             0.0000000000
     15916       126  POPC      C31             5.4913520654       45.6095425584       32.1554433402  MEMB      120             0.0000000000
     15917       126  POPC      O32             4.6885389355       44.7518292042       31.8428228738  MEMB      120             0.0000000000
     15918       126  POPC      C32             6.0523454703       45.7466152020       33.5756082145  MEMB      120             0.0000000000
     15919       126  POPC      H2X             6.7282137800       44.8781664699       33.7295262398  MEMB      120             0.0000000000
     15920       126  POPC      H2Y             5.1998706471       45.6553177664       34.2762476385  MEMB      120             0.0000000000
     15921       126  POPC      C23             5.6410954054       51.6051080056       31.2768850293  MEMB      120             0.0000000000
     15922       126  POPC      H3R             6.1365724842       51.3667470503       30.3109677691  MEMB      120             0.0000000000
     15923       126  POPC      H3S             6.4213153498       51.4644070559       32.0555237480  MEMB      120             0.0000000000
     15924       126  POPC      C24             5.1689001246       53.0797777191       31.2358118834  MEMB      120             0.0000000000
     15925       126  POPC      H4R             4.3975321959       53.1806082178       30.4401859544  MEMB      120             0.0000000000
     15926       126  POPC      H4S             6.0140218850       53.7254621708       30.9214836510  MEMB      120             0.0000000000
     15927       126  POPC      C25             4.5790401813       53.6390990364       32.5448291636  MEMB      120             0.0000000000
     15928       126  POPC      H5R             3.6268891117       53.1133312550       32.7781036571  MEMB      120             0.0000000000
     15929       126  POPC      H5S             4.3330463635       54.7160419418       32.3867933973  MEMB      120             0.0000000000
     15930       126  POPC      C26             5.4999421680       53.5431265287       33.7724635702  MEMB      120             0.0000000000
     15931       126  POPC      H6R             6.5359872957       53.8180543000       33.4741770792  MEMB      120             0.0000000000
     15932       126  POPC      H6S             5.5205211640       52.4931800509       34.1416215188  MEMB      120             0.0000000000
     15933       126  POPC      C27             5.0723045570       54.4847719438       34.9149655686  MEMB      120             0.0000000000
     15934       126  POPC      H7R             5.0998165004       55.5249904955       34.5248170243  MEMB      120             0.0000000000
     15935       126  POPC      H7S             5.8187900884       54.4119853346       35.7388967005  MEMB      120             0.0000000000
     15936       126  POPC      C28             3.6721573037       54.1796065046       35.4802971824  MEMB      120             0.0000000000
     15937       126  POPC      H8R             3.7078539250       53.1459290864       35.8914252706  MEMB      120             0.0000000000
     15938       126  POPC      H8S             2.9365534133       54.1612731663       34.6462900407  MEMB      120             0.0000000000
     15939       126  POPC      C29             3.2190059660       55.1952986026       36.5046420110  MEMB      120             0.0000000000
     15940       126  POPC      H91             2.9633087725       56.1781050683       36.0837150914  MEMB      120             0.0000000000
     15941       126  POPC      C210            3.0960434447       55.0138891479       37.8342466340  MEMB      120             0.0000000000
     15942       126  POPC      H101            2.7681063422       55.8577272893       38.4621994525  MEMB      120             0.0000000000
     15943       126  POPC      C211            3.3928528820       53.7367714657       38.5786293504  MEMB      120             0.0000000000
     15944       126  POPC      H11R            3.3217305477       52.8601530875       37.9048020184  MEMB      120             0.0000000000
     15945       126  POPC      H11S            2.6460154117       53.5575352005       39.3846912724  MEMB      120             0.0000000000
     15946       126  POPC      C212            4.8089278241       53.7129692926       39.1746849515  MEMB      120             0.0000000000
     15947       126  POPC      H12R            5.5360979946       54.2029902632       38.4896613911  MEMB      120             0.0000000000
     15948       126  POPC      H12S            5.1205600712       52.6468740157       39.2737631757  MEMB      120             0.0000000000
     15949       126  POPC      C213            4.8765096748       54.3441021114       40.5674338160  MEMB      120             0.0000000000
     15950       126  POPC      H13R            4.2079654673       53.7518170246       41.2344458227  MEMB      120             0.0000000000
     15951       126  POPC      H13S            4.4956164577       55.3895913349       40.5426927000  MEMB      120             0.0000000000
     15952       126  POPC      C214            6.2982395374       54.3332846756       41.1427306383  MEMB      120             0.0000000000
     15953       126  POPC      H14R            6.8908312564       55.1484788060       40.6720381273  MEMB      120             0.0000000000
     15954       126  POPC      H14S            6.7910197957       53.3682439782       40.8835044322  MEMB      120             0.0000000000
     15955       126  POPC      C215            6.3037869784       54.4845529038       42.6688014552  MEMB      120             0.0000000000
     15956       126  POPC      H15R            6.6903474644       53.5436939033       43.1199707797  MEMB      120             0.0000000000
     15957       126  POPC      H15S            5.2527163341       54.6141431757       43.0100505627  MEMB      120             0.0000000000
     15958       126  POPC      C216            7.1333278674       55.6647937176       43.1832758722  MEMB      120             0.0000000000
     15959       126  POPC      H16R            6.7201040962       56.6108168640       42.7667905873  MEMB      120             0.0000000000
     15960       126  POPC      H16S            8.1784633125       55.5587644801       42.8156372904  MEMB      120             0.0000000000
     15961       126  POPC      C217            7.1462001959       55.7541050547       44.7176149285  MEMB      120             0.0000000000
     15962       126  POPC      H17R            7.7961589425       56.6100709803       45.0068235102  MEMB      120             0.0000000000
     15963       126  POPC      H17S            7.6181716215       54.8299389125       45.1240202761  MEMB      120             0.0000000000
     15964       126  POPC      C218            5.7656970224       55.9356866075       45.3600332484  MEMB      120             0.0000000000
     15965       126  POPC      H18R            5.8599215050       56.0650854100       46.4582313624  MEMB      120             0.0000000000
     15966       126  POPC      H18S            5.1244718434       55.0475242915       45.1790452968  MEMB      120             0.0000000000
     15967       126  POPC      H18T            5.2539409961       56.8307740390       44.9472156949  MEMB      120             0.0000000000
     15968       126  POPC      C33             6.8335827026       47.0468440562       33.8697341228  MEMB      120             0.0000000000
     15969       126  POPC      H3X             7.6248338650       47.1409475527       33.0965500434  MEMB      120             0.0000000000
     15970       126  POPC      H3Y             7.3559274872       46.9421859796       34.8445709161  MEMB      120             0.0000000000
     15971       126  POPC      C34             5.9596763583       48.3129529376       33.8913142936  MEMB      120             0.0000000000
     15972       126  POPC      H4X             5.0623159736       48.1455810487       33.2573207264  MEMB      120             0.0000000000
     15973       126  POPC      H4Y             6.5349557441       49.1487687167       33.4284136384  MEMB      120             0.0000000000
     15974       126  POPC      C35             5.5219320367       48.7609116188       35.2924920527  MEMB      120             0.0000000000
     15975       126  POPC      H5X             5.0512244194       47.9023725397       35.8168935776  MEMB      120             0.0000000000
     15976       126  POPC      H5Y             4.7473468375       49.5543183368       35.1769661183  MEMB      120             0.0000000000
     15977       126  POPC      C36             6.6696870192       49.3505375014       36.1261303103  MEMB      120             0.0000000000
     15978       126  POPC      H6X             7.1344916432       50.1834788401       35.5503352320  MEMB      120             0.0000000000
     15979       126  POPC      H6Y             7.4578844896       48.5858497279       36.2924657435  MEMB      120             0.0000000000
     15980       126  POPC      C37             6.2170101017       49.8887581887       37.4925617302  MEMB      120             0.0000000000
     15981       126  POPC      H7X             5.4487200486       50.6798235553       37.3312596301  MEMB      120             0.0000000000
     15982       126  POPC      H7Y             7.0806484287       50.3702943207       38.0023915884  MEMB      120             0.0000000000
     15983       126  POPC      C38             5.6614827870       48.8054464736       38.4276107541  MEMB      120             0.0000000000
     15984       126  POPC      H8X             6.2897357605       48.7582798532       39.3470425974  MEMB      120             0.0000000000
     15985       126  POPC      H8Y             5.7235993665       47.8095768824       37.9382739416  MEMB      120             0.0000000000
     15986       126  POPC      C39             4.2106846726       49.0842238919       38.8286764903  MEMB      120             0.0000000000
     15987       126  POPC      H9X             3.5826179517       49.1753103268       37.9162860618  MEMB      120             0.0000000000
     15988       126  POPC      H9Y             4.1788417957       50.0639748236       39.3595964649  MEMB      120             0.0000000000
     15989       126  POPC      C310            3.6079711186       47.9999773289       39.7275799011  MEMB      120             0.0000000000
     15990       126  POPC      H10X            4.4249744772       47.4558656455       40.2526266707  MEMB      120             0.0000000000
     15991       126  POPC      H10Y            3.0683462147       47.2626810729       39.0915120941  MEMB      120             0.0000000000
     15992       126  POPC      C311            2.6578869788       48.5869157478       40.7789632066  MEMB      120             0.0000000000
     15993       126  POPC      H11X            1.9566611890       47.7942686056       41.1260783690  MEMB      120             0.0000000000
     15994       126  POPC      H11Y            2.0420419852       49.3919392811       40.3199811797  MEMB      120             0.0000000000
     15995       126  POPC      C312            3.4101732813       49.1318665670       42.0030337095  MEMB      120             0.0000000000
     15996       126  POPC      H12X            4.1716187279       49.8810409154       41.6948540991  MEMB      120             0.0000000000
     15997       126  POPC      H12Y            3.9527438750       48.2865835848       42.4827257050  MEMB      120             0.0000000000
     15998       126  POPC      C313            2.4536821271       49.7520291107       43.0276924095  MEMB      120             0.0000000000
     15999       126  POPC      H13X            1.5606110400       49.0899385358       43.0832900963  MEMB      120             0.0000000000
     16000       126  POPC      H13Y            2.1072942199       50.7447560372       42.6664707389  MEMB      120             0.0000000000
     16001       126  POPC      C314            3.0343531160       49.8638080762       44.4468803866  MEMB      120             0.0000000000
     16002       126  POPC      H14X            3.2832767511       48.8403243465       44.8020580412  MEMB      120             0.0000000000
     16003       126  POPC      H14Y            2.2544041876       50.2783499434       45.1246818386  MEMB      120             0.0000000000
     16004       126  POPC      C315            4.2971383614       50.7193201693       44.5915931185  MEMB      120             0.0000000000
     16005       126  POPC      H15X            5.1437400002       50.1945414294       44.0986263992  MEMB      120             0.0000000000
     16006       126  POPC      H15Y            4.5386973417       50.7913932936       45.6777826577  MEMB      120             0.0000000000
     16007       126  POPC      C316            4.1937892332       52.1336071656       44.0315539315  MEMB      120             0.0000000000
     16008       126  POPC      H16X            3.2886874605       52.6424015103       44.4116416732  MEMB      120             0.0000000000
     16009       126  POPC      H16Y            4.1566108411       52.1186563653       42.9219446802  MEMB      120             0.0000000000
     16010       126  POPC      H16Z            5.0783402782       52.7237553036       44.3508023246  MEMB      120             0.0000000000
     16011       127  POPC      N              57.2808095743       59.8072903637       26.6359257712  MEMB      121             0.0000000000
     16012       127  POPC      C12            57.7687881895       60.5649051739       25.4012488514  MEMB      121             0.0000000000
     16013       127  POPC      H12A           58.0676443835       59.8673108967       24.6272272153  MEMB      121             0.0000000000
     16014       127  POPC      H12B           58.6481935598       61.1308070124       25.6875411246  MEMB      121             0.0000000000
     16015       127  POPC      C13            55.8519767264       59.3941147306       26.4427336894  MEMB      121             0.0000000000
     16016       127  POPC      H13A           55.7602311178       58.8762687950       25.4901873004  MEMB      121             0.0000000000
     16017       127  POPC      H13B           55.4961177633       58.7414437530       27.2271775712  MEMB      121             0.0000000000
     16018       127  POPC      H13C           55.2034729013       60.2736676931       26.4170061033  MEMB      121             0.0000000000
     16019       127  POPC      C14            58.0799503728       58.5805527107       26.8566762818  MEMB      121             0.0000000000
     16020       127  POPC      H14A           59.1278642740       58.8156482279       26.9394950126  MEMB      121             0.0000000000
     16021       127  POPC      H14B           57.7661608438       58.0920428337       27.7764855879  MEMB      121             0.0000000000
     16022       127  POPC      H14C           57.9058968024       57.8491848444       26.0628979045  MEMB      121             0.0000000000
     16023       127  POPC      C15            57.3816344437       60.7068081097       27.8318866920  MEMB      121             0.0000000000
     16024       127  POPC      H15A           58.4078195949       60.9300682816       28.0748240198  MEMB      121             0.0000000000
     16025       127  POPC      H15B           56.8582761629       60.3072671193       28.6890327473  MEMB      121             0.0000000000
     16026       127  POPC      H15C           56.8791795206       61.6432134439       27.5909108036  MEMB      121             0.0000000000
     16027       127  POPC      C11            56.7753874219       61.5609174316       24.7554729329  MEMB      121             0.0000000000
     16028       127  POPC      H11A           55.9695258442       60.9995945996       24.2321580591  MEMB      121             0.0000000000
     16029       127  POPC      H11B           57.2894078497       62.1808362347       23.9877349881  MEMB      121             0.0000000000
     16030       127  POPC      P              54.7238315235       62.7499093419       25.8771995708  MEMB      121             0.0000000000
     16031       127  POPC      O13            54.1701737863       61.9100285460       26.9554631405  MEMB      121             0.0000000000
     16032       127  POPC      O14            54.0173579907       62.7185159914       24.5725071311  MEMB      121             0.0000000000
     16033       127  POPC      O12            56.2569413367       62.4114995975       25.7481204776  MEMB      121             0.0000000000
     16034       127  POPC      O11            54.8254782674       64.2488184000       26.3425020523  MEMB      121             0.0000000000
     16035       127  POPC      C1             56.0924435189       64.8836764538       26.5961065876  MEMB      121             0.0000000000
     16036       127  POPC      HA             55.9807448221       65.9861927439       26.5390002177  MEMB      121             0.0000000000
     16037       127  POPC      HB             56.8666322646       64.6271696887       25.8329087834  MEMB      121             0.0000000000
     16038       127  POPC      C2             56.6204382117       64.5749311038       28.0175587287  MEMB      121             0.0000000000
     16039       127  POPC      HS             56.9369054896       63.5047707846       27.9755333652  MEMB      121             0.0000000000
     16040       127  POPC      O21            55.5573323313       64.8257200660       28.9745010187  MEMB      121             0.0000000000
     16041       127  POPC      C21            55.6661884715       63.9901775206       30.0133483271  MEMB      121             0.0000000000
     16042       127  POPC      O22            56.4740492865       63.0901965262       30.1070358738  MEMB      121             0.0000000000
     16043       127  POPC      C22            54.6862581064       64.4081659033       31.0947199070  MEMB      121             0.0000000000
     16044       127  POPC      H2R            53.6544558218       64.2264003387       30.7351865657  MEMB      121             0.0000000000
     16045       127  POPC      H2S            54.8298298162       65.4990109048       31.2528396371  MEMB      121             0.0000000000
     16046       127  POPC      C3             57.8844489101       65.4275589091       28.3407669666  MEMB      121             0.0000000000
     16047       127  POPC      HX             57.6962875716       66.4776812860       28.0330697559  MEMB      121             0.0000000000
     16048       127  POPC      HY             58.7033705228       65.0434291825       27.6887676713  MEMB      121             0.0000000000
     16049       127  POPC      O31            58.3190328624       65.3186231052       29.7102047470  MEMB      121             0.0000000000
     16050       127  POPC      C31            58.1934704637       66.3825677721       30.4997993851  MEMB      121             0.0000000000
     16051       127  POPC      O32            57.5410171592       67.3802073701       30.2578701225  MEMB      121             0.0000000000
     16052       127  POPC      C32            59.0341132529       66.2017706073       31.7474706372  MEMB      121             0.0000000000
     16053       127  POPC      H2X            59.1031979596       67.1797651263       32.2683856731  MEMB      121             0.0000000000
     16054       127  POPC      H2Y            60.0504998298       65.8822539316       31.4431407653  MEMB      121             0.0000000000
     16055       127  POPC      C23            54.9473486637       63.6838576164       32.4398374811  MEMB      121             0.0000000000
     16056       127  POPC      H3R            54.5929812503       64.3681584607       33.2467555148  MEMB      121             0.0000000000
     16057       127  POPC      H3S            56.0297365720       63.5158289972       32.6245681687  MEMB      121             0.0000000000
     16058       127  POPC      C24            54.1770622471       62.3628620777       32.6025848156  MEMB      121             0.0000000000
     16059       127  POPC      H4R            53.2384223686       62.3965767633       32.0062869562  MEMB      121             0.0000000000
     16060       127  POPC      H4S            53.8947840831       62.2841301073       33.6773121743  MEMB      121             0.0000000000
     16061       127  POPC      C25            54.9972884727       61.1130957466       32.2307306326  MEMB      121             0.0000000000
     16062       127  POPC      H5R            55.8822144490       61.0568424208       32.9005115636  MEMB      121             0.0000000000
     16063       127  POPC      H5S            55.3864800876       61.2224381696       31.1937846245  MEMB      121             0.0000000000
     16064       127  POPC      C26            54.1879538074       59.8056573378       32.2947415413  MEMB      121             0.0000000000
     16065       127  POPC      H6R            54.8055722549       58.9526605697       31.9389576982  MEMB      121             0.0000000000
     16066       127  POPC      H6S            53.3459817896       59.9245246054       31.5737245726  MEMB      121             0.0000000000
     16067       127  POPC      C27            53.5939534790       59.4647524848       33.6754032700  MEMB      121             0.0000000000
     16068       127  POPC      H7R            52.6999520375       58.8284308058       33.5129534847  MEMB      121             0.0000000000
     16069       127  POPC      H7S            53.2326453636       60.3829093589       34.1787982285  MEMB      121             0.0000000000
     16070       127  POPC      C28            54.5055324237       58.6533413869       34.6118018669  MEMB      121             0.0000000000
     16071       127  POPC      H8R            54.8258098810       57.7294462826       34.0813289172  MEMB      121             0.0000000000
     16072       127  POPC      H8S            53.8946776838       58.3187120763       35.4820336341  MEMB      121             0.0000000000
     16073       127  POPC      C29            55.7043365525       59.4187168216       35.0930391566  MEMB      121             0.0000000000
     16074       127  POPC      H91            56.6345904184       59.1969060525       34.5543197119  MEMB      121             0.0000000000
     16075       127  POPC      C210           55.7165466966       60.3492007068       36.0610921286  MEMB      121             0.0000000000
     16076       127  POPC      H101           56.6820207174       60.7920209603       36.3461976777  MEMB      121             0.0000000000
     16077       127  POPC      C211           54.5311388669       60.8217670522       36.8668154609  MEMB      121             0.0000000000
     16078       127  POPC      H11R           53.5717749520       60.5382403052       36.3778172608  MEMB      121             0.0000000000
     16079       127  POPC      H11S           54.5348247019       61.9318728916       36.9467895349  MEMB      121             0.0000000000
     16080       127  POPC      C212           54.5276706943       60.2115093986       38.2767989028  MEMB      121             0.0000000000
     16081       127  POPC      H12R           54.5810423382       59.1009783928       38.1843026868  MEMB      121             0.0000000000
     16082       127  POPC      H12S           53.5611269319       60.4440698425       38.7791750363  MEMB      121             0.0000000000
     16083       127  POPC      C213           55.6765766579       60.7044527064       39.1705197874  MEMB      121             0.0000000000
     16084       127  POPC      H13R           55.5355039042       61.7713189317       39.4484488775  MEMB      121             0.0000000000
     16085       127  POPC      H13S           56.6349696331       60.6303003438       38.6070975522  MEMB      121             0.0000000000
     16086       127  POPC      C214           55.8168874706       59.8322698503       40.4221781362  MEMB      121             0.0000000000
     16087       127  POPC      H14R           56.8610879876       59.8786606512       40.7938998177  MEMB      121             0.0000000000
     16088       127  POPC      H14S           55.6365823585       58.7805823079       40.1143052184  MEMB      121             0.0000000000
     16089       127  POPC      C215           54.8614501349       60.1953591778       41.5686915110  MEMB      121             0.0000000000
     16090       127  POPC      H15R           53.8393466455       60.3612315141       41.1634867098  MEMB      121             0.0000000000
     16091       127  POPC      H15S           55.2003669949       61.1431515266       42.0416455233  MEMB      121             0.0000000000
     16092       127  POPC      C216           54.8053872615       59.0704194927       42.6146169472  MEMB      121             0.0000000000
     16093       127  POPC      H16R           55.8472829870       58.7488207811       42.8362959428  MEMB      121             0.0000000000
     16094       127  POPC      H16S           54.2795253587       58.2041879964       42.1583289133  MEMB      121             0.0000000000
     16095       127  POPC      C217           54.1259337180       59.4248353319       43.9458233789  MEMB      121             0.0000000000
     16096       127  POPC      H17R           54.7925123656       60.1292061283       44.4892035293  MEMB      121             0.0000000000
     16097       127  POPC      H17S           54.0590967994       58.5001776871       44.5627652610  MEMB      121             0.0000000000
     16098       127  POPC      C218           52.7343453794       60.0474262708       43.8303336530  MEMB      121             0.0000000000
     16099       127  POPC      H18R           52.7789838478       60.9832096470       43.2323331519  MEMB      121             0.0000000000
     16100       127  POPC      H18S           52.3309036668       60.2974771243       44.8343315260  MEMB      121             0.0000000000
     16101       127  POPC      H18T           52.0229589303       59.3500978573       43.3452067230  MEMB      121             0.0000000000
     16102       127  POPC      C33            58.3997461549       65.1541315959       32.6725804883  MEMB      121             0.0000000000
     16103       127  POPC      H3X            58.3563318820       64.1769432687       32.1341748709  MEMB      121             0.0000000000
     16104       127  POPC      H3Y            57.3568754702       65.4486406435       32.9302438385  MEMB      121             0.0000000000
     16105       127  POPC      C34            59.1904579954       64.9722360979       33.9694364041  MEMB      121             0.0000000000
     16106       127  POPC      H4X            59.0018440589       65.8316395552       34.6465552777  MEMB      121             0.0000000000
     16107       127  POPC      H4Y            60.2731755950       64.9890087766       33.7320873465  MEMB      121             0.0000000000
     16108       127  POPC      C35            58.8456866590       63.6438037732       34.6542662873  MEMB      121             0.0000000000
     16109       127  POPC      H5X            59.6787302531       63.3319898389       35.3209351582  MEMB      121             0.0000000000
     16110       127  POPC      H5Y            58.7526568526       62.8544224050       33.8737767086  MEMB      121             0.0000000000
     16111       127  POPC      C36            57.5262413744       63.6963150678       35.4346203710  MEMB      121             0.0000000000
     16112       127  POPC      H6X            57.2470238104       62.6586089283       35.7097460956  MEMB      121             0.0000000000
     16113       127  POPC      H6Y            56.7216124724       64.0845993462       34.7723317159  MEMB      121             0.0000000000
     16114       127  POPC      C37            57.5808906710       64.5389416838       36.7203891047  MEMB      121             0.0000000000
     16115       127  POPC      H7X            56.5555971151       64.5993595819       37.1516278773  MEMB      121             0.0000000000
     16116       127  POPC      H7Y            57.8888111075       65.5779326377       36.4739627448  MEMB      121             0.0000000000
     16117       127  POPC      C38            58.5251640717       63.9697703815       37.7888671773  MEMB      121             0.0000000000
     16118       127  POPC      H8X            59.5108829962       63.7147258893       37.3421884250  MEMB      121             0.0000000000
     16119       127  POPC      H8Y            58.0881021888       63.0277544364       38.1908775844  MEMB      121             0.0000000000
     16120       127  POPC      C39            58.7917541393       64.9398133355       38.9464271547  MEMB      121             0.0000000000
     16121       127  POPC      H9X            59.3612919984       65.8190220595       38.5720119325  MEMB      121             0.0000000000
     16122       127  POPC      H9Y            59.4453316125       64.4174877597       39.6787443135  MEMB      121             0.0000000000
     16123       127  POPC      C310           57.5218520497       65.4336728666       39.6566856724  MEMB      121             0.0000000000
     16124       127  POPC      H10X           56.7854239093       64.6068805761       39.7570138528  MEMB      121             0.0000000000
     16125       127  POPC      H10Y           57.0391855953       66.2068432474       39.0219393998  MEMB      121             0.0000000000
     16126       127  POPC      C311           57.8223067196       66.0194730568       41.0444746591  MEMB      121             0.0000000000
     16127       127  POPC      H11X           57.1740323128       66.9067825939       41.2178174277  MEMB      121             0.0000000000
     16128       127  POPC      H11Y           58.8787335348       66.3672249789       41.0775179261  MEMB      121             0.0000000000
     16129       127  POPC      C312           57.5573175284       65.0320653372       42.1898653340  MEMB      121             0.0000000000
     16130       127  POPC      H12X           56.4568902944       64.8838531040       42.2798824878  MEMB      121             0.0000000000
     16131       127  POPC      H12Y           57.9151957759       65.4761158277       43.1463572884  MEMB      121             0.0000000000
     16132       127  POPC      C313           58.2137759848       63.6600698703       41.9911944028  MEMB      121             0.0000000000
     16133       127  POPC      H13X           59.3145574899       63.7782068205       41.9068116152  MEMB      121             0.0000000000
     16134       127  POPC      H13Y           57.8600160028       63.1918806782       41.0461917313  MEMB      121             0.0000000000
     16135       127  POPC      C314           57.8814746295       62.7019474377       43.1324223282  MEMB      121             0.0000000000
     16136       127  POPC      H14X           56.7784645106       62.5717770373       43.1709679213  MEMB      121             0.0000000000
     16137       127  POPC      H14Y           58.2044261762       63.1493160841       44.0986450836  MEMB      121             0.0000000000
     16138       127  POPC      C315           58.5299743528       61.3309848820       42.9472274956  MEMB      121             0.0000000000
     16139       127  POPC      H15X           59.6323582206       61.4558367435       42.8917059183  MEMB      121             0.0000000000
     16140       127  POPC      H15Y           58.2127649078       60.9155843091       41.9683975968  MEMB      121             0.0000000000
     16141       127  POPC      C316           58.1616347779       60.3564890297       44.0636761715  MEMB      121             0.0000000000
     16142       127  POPC      H16X           57.0615934278       60.2081210450       44.0969233446  MEMB      121             0.0000000000
     16143       127  POPC      H16Y           58.4782793380       60.7575159637       45.0505863821  MEMB      121             0.0000000000
     16144       127  POPC      H16Z           58.6458330316       59.3699069133       43.9057912906  MEMB      121             0.0000000000
     16145       128  POPC      N              49.6527903911       69.0504207713       26.3123887926  MEMB      122             0.0000000000
     16146       128  POPC      C12            49.0443622641       67.7831553549       25.7286054548  MEMB      122             0.0000000000
     16147       128  POPC      H12A           48.3495782300       68.0773637775       24.9441641335  MEMB      122             0.0000000000
     16148       128  POPC      H12B           48.4494694926       67.2904013371       26.4907256878  MEMB      122             0.0000000000
     16149       128  POPC      C13            48.5542906692       69.9915784684       26.6744030992  MEMB      122             0.0000000000
     16150       128  POPC      H13A           47.9847095001       70.2081651881       25.7727736120  MEMB      122             0.0000000000
     16151       128  POPC      H13B           47.8853518367       69.5533371287       27.4040149222  MEMB      122             0.0000000000
     16152       128  POPC      H13C           48.9840588140       70.9130436631       27.0512814443  MEMB      122             0.0000000000
     16153       128  POPC      C14            50.4699809116       68.7535402975       27.5267022870  MEMB      122             0.0000000000
     16154       128  POPC      H14A           51.1409773764       67.9230822789       27.3177353918  MEMB      122             0.0000000000
     16155       128  POPC      H14B           51.0076903135       69.6321472104       27.8527793794  MEMB      122             0.0000000000
     16156       128  POPC      H14C           49.8512081343       68.3850186676       28.3387690985  MEMB      122             0.0000000000
     16157       128  POPC      C15            50.5072382796       69.7430917853       25.3074588624  MEMB      122             0.0000000000
     16158       128  POPC      H15A           51.2929466946       69.0731674026       24.9891023063  MEMB      122             0.0000000000
     16159       128  POPC      H15B           50.9760382206       70.6338680089       25.7405093685  MEMB      122             0.0000000000
     16160       128  POPC      H15C           49.9064131089       70.0466319330       24.4517881746  MEMB      122             0.0000000000
     16161       128  POPC      C11            49.9859521464       66.6960069623       25.1450637925  MEMB      122             0.0000000000
     16162       128  POPC      H11A           50.5805848190       67.1299494794       24.3321837938  MEMB      122             0.0000000000
     16163       128  POPC      H11B           49.3889608077       65.8814561215       24.6764788177  MEMB      122             0.0000000000
     16164       128  POPC      P              50.4651578401       65.2550981384       27.3001081117  MEMB      122             0.0000000000
     16165       128  POPC      O13            51.1793422738       65.8950278166       28.4256033700  MEMB      122             0.0000000000
     16166       128  POPC      O14            50.8065615437       63.8606901493       26.9828795051  MEMB      122             0.0000000000
     16167       128  POPC      O12            50.9003399261       66.1707702316       26.0857038236  MEMB      122             0.0000000000
     16168       128  POPC      O11            48.8978657999       65.4160611994       27.4175969522  MEMB      122             0.0000000000
     16169       128  POPC      C1             48.0403852613       64.5608916685       26.6342255225  MEMB      122             0.0000000000
     16170       128  POPC      HA             48.5695198922       63.7262886241       26.1194374304  MEMB      122             0.0000000000
     16171       128  POPC      HB             47.5838150459       65.1759832405       25.8258830532  MEMB      122             0.0000000000
     16172       128  POPC      C2             46.8495022723       63.9363973448       27.4319447699  MEMB      122             0.0000000000
     16173       128  POPC      HS             46.0552341315       63.6986353363       26.6870788305  MEMB      122             0.0000000000
     16174       128  POPC      O21            46.3404283445       64.8291372687       28.4300382274  MEMB      122             0.0000000000
     16175       128  POPC      C21            45.8537629869       65.9570883726       27.9268482855  MEMB      122             0.0000000000
     16176       128  POPC      O22            45.5006151971       66.1207918094       26.7723707009  MEMB      122             0.0000000000
     16177       128  POPC      C22            45.6753687420       67.0078133909       29.0261677175  MEMB      122             0.0000000000
     16178       128  POPC      H2R            44.5867347406       67.2149571117       29.1039638741  MEMB      122             0.0000000000
     16179       128  POPC      H2S            46.1846340358       67.9277995610       28.6760559488  MEMB      122             0.0000000000
     16180       128  POPC      C3             47.1927228461       62.5874433075       28.1304496407  MEMB      122             0.0000000000
     16181       128  POPC      HX             47.5652555839       61.9133275583       27.3321608038  MEMB      122             0.0000000000
     16182       128  POPC      HY             46.2553160922       62.1308179483       28.5176925313  MEMB      122             0.0000000000
     16183       128  POPC      O31            48.2024051635       62.7001317614       29.1532682473  MEMB      122             0.0000000000
     16184       128  POPC      C31            47.7449318836       63.0128500215       30.3718981666  MEMB      122             0.0000000000
     16185       128  POPC      O32            46.5695028703       63.0469046424       30.6930969598  MEMB      122             0.0000000000
     16186       128  POPC      C32            48.9314895300       63.3328563012       31.2828409244  MEMB      122             0.0000000000
     16187       128  POPC      H2X            49.7617438295       62.6453835558       31.0166399059  MEMB      122             0.0000000000
     16188       128  POPC      H2Y            48.6388023903       63.1401156912       32.3354843933  MEMB      122             0.0000000000
     16189       128  POPC      C23            46.2388719369       66.5770349881       30.4001738310  MEMB      122             0.0000000000
     16190       128  POPC      H3R            47.3166281342       66.3270239680       30.2811914606  MEMB      122             0.0000000000
     16191       128  POPC      H3S            45.7149827007       65.6568236686       30.7450393234  MEMB      122             0.0000000000
     16192       128  POPC      C24            46.1139336025       67.6556474799       31.4854531274  MEMB      122             0.0000000000
     16193       128  POPC      H4R            45.0394613139       67.8274521508       31.7032642381  MEMB      122             0.0000000000
     16194       128  POPC      H4S            46.5479029651       68.6075185376       31.1042038824  MEMB      122             0.0000000000
     16195       128  POPC      C25            46.8281627512       67.2814766150       32.7974292332  MEMB      122             0.0000000000
     16196       128  POPC      H5R            46.7004774322       68.1113911024       33.5262984124  MEMB      122             0.0000000000
     16197       128  POPC      H5S            47.9185345460       67.1851964373       32.6040589857  MEMB      122             0.0000000000
     16198       128  POPC      C26            46.3055697030       65.9886575663       33.4481401624  MEMB      122             0.0000000000
     16199       128  POPC      H6R            46.4757563673       65.1355872909       32.7547643519  MEMB      122             0.0000000000
     16200       128  POPC      H6S            45.2105561914       66.0815359959       33.6220743176  MEMB      122             0.0000000000
     16201       128  POPC      C27            47.0009922522       65.6588748434       34.7793606865  MEMB      122             0.0000000000
     16202       128  POPC      H7R            46.8188139502       66.4791018712       35.5085141715  MEMB      122             0.0000000000
     16203       128  POPC      H7S            48.0957393558       65.6112053933       34.5955293086  MEMB      122             0.0000000000
     16204       128  POPC      C28            46.5314418952       64.3215763595       35.3829240759  MEMB      122             0.0000000000
     16205       128  POPC      H8R            46.5415275606       63.5503880358       34.5802613635  MEMB      122             0.0000000000
     16206       128  POPC      H8S            45.4713218168       64.4324736249       35.7045758756  MEMB      122             0.0000000000
     16207       128  POPC      C29            47.4281877230       63.8751182691       36.5125319447  MEMB      122             0.0000000000
     16208       128  POPC      H91            48.3273094122       63.3249759552       36.1930390309  MEMB      122             0.0000000000
     16209       128  POPC      C210           47.2532110378       64.1025447970       37.8254254387  MEMB      122             0.0000000000
     16210       128  POPC      H101           47.9988595659       63.7053751695       38.5305121660  MEMB      122             0.0000000000
     16211       128  POPC      C211           46.1211450340       64.8555035818       38.4724081204  MEMB      122             0.0000000000
     16212       128  POPC      H11R           45.7908559482       64.3066673006       39.3829250577  MEMB      122             0.0000000000
     16213       128  POPC      H11S           45.2359834982       64.9240226484       37.8000246138  MEMB      122             0.0000000000
     16214       128  POPC      C212           46.4865909843       66.2919690302       38.8830082047  MEMB      122             0.0000000000
     16215       128  POPC      H12R           45.6183821704       66.7021957083       39.4491970315  MEMB      122             0.0000000000
     16216       128  POPC      H12S           46.6277374385       66.9225474624       37.9759239679  MEMB      122             0.0000000000
     16217       128  POPC      C213           47.7362802303       66.4001589637       39.7656921362  MEMB      122             0.0000000000
     16218       128  POPC      H13R           48.6467776003       66.3430435069       39.1287568150  MEMB      122             0.0000000000
     16219       128  POPC      H13S           47.7609455304       65.5429394387       40.4756867580  MEMB      122             0.0000000000
     16220       128  POPC      C214           47.7610204021       67.6954022844       40.5853971765  MEMB      122             0.0000000000
     16221       128  POPC      H14R           46.8942318389       67.6741692946       41.2807020399  MEMB      122             0.0000000000
     16222       128  POPC      H14S           47.6291921801       68.5740760960       39.9168559559  MEMB      122             0.0000000000
     16223       128  POPC      C215           49.0630348845       67.8511239038       41.3816394074  MEMB      122             0.0000000000
     16224       128  POPC      H15R           49.8190592274       68.3244776146       40.7159607996  MEMB      122             0.0000000000
     16225       128  POPC      H15S           49.4544854764       66.8455113090       41.6560360782  MEMB      122             0.0000000000
     16226       128  POPC      C216           48.9128770057       68.6819964788       42.6658569025  MEMB      122             0.0000000000
     16227       128  POPC      H16R           48.3722931547       69.6291885503       42.4475748368  MEMB      122             0.0000000000
     16228       128  POPC      H16S           49.9370023735       68.9556252878       43.0087674338  MEMB      122             0.0000000000
     16229       128  POPC      C217           48.2220815337       67.9225228682       43.8120404131  MEMB      122             0.0000000000
     16230       128  POPC      H17R           48.8329305322       68.0506627554       44.7354483855  MEMB      122             0.0000000000
     16231       128  POPC      H17S           48.2109380808       66.8323839666       43.5820973615  MEMB      122             0.0000000000
     16232       128  POPC      C218           46.7997739207       68.4010404225       44.1145883288  MEMB      122             0.0000000000
     16233       128  POPC      H18R           46.8003623366       69.4818147294       44.3702969453  MEMB      122             0.0000000000
     16234       128  POPC      H18S           46.3738512647       67.8424431421       44.9740075613  MEMB      122             0.0000000000
     16235       128  POPC      H18T           46.1315373592       68.2542724858       43.2411398088  MEMB      122             0.0000000000
     16236       128  POPC      C33            49.4031743287       64.7960325118       31.1157339047  MEMB      122             0.0000000000
     16237       128  POPC      H3X            48.8402482221       65.4522928116       31.8093324276  MEMB      122             0.0000000000
     16238       128  POPC      H3Y            49.1781230374       65.1469317699       30.0807976708  MEMB      122             0.0000000000
     16239       128  POPC      C34            50.9138010507       64.9941616598       31.3078389331  MEMB      122             0.0000000000
     16240       128  POPC      H4X            51.1747607612       66.0124179687       30.9374217099  MEMB      122             0.0000000000
     16241       128  POPC      H4Y            51.4408489439       64.2602421377       30.6583692365  MEMB      122             0.0000000000
     16242       128  POPC      C35            51.3947147631       64.8773322457       32.7550571550  MEMB      122             0.0000000000
     16243       128  POPC      H5X            52.5049306657       64.8320957991       32.7714778272  MEMB      122             0.0000000000
     16244       128  POPC      H5Y            51.0066220739       63.9359102508       33.2021588630  MEMB      122             0.0000000000
     16245       128  POPC      C36            50.9922437427       66.0696683735       33.6311656816  MEMB      122             0.0000000000
     16246       128  POPC      H6X            49.8865636156       66.1312157634       33.6722366039  MEMB      122             0.0000000000
     16247       128  POPC      H6Y            51.3606481190       67.0174729916       33.1812704040  MEMB      122             0.0000000000
     16248       128  POPC      C37            51.5624931006       65.9051109411       35.0426700679  MEMB      122             0.0000000000
     16249       128  POPC      H7X            52.6602209714       66.0831418977       35.0241993139  MEMB      122             0.0000000000
     16250       128  POPC      H7Y            51.3959922705       64.8427992358       35.3277250564  MEMB      122             0.0000000000
     16251       128  POPC      C38            50.9063034860       66.8082931053       36.0930631513  MEMB      122             0.0000000000
     16252       128  POPC      H8X            49.8077022383       66.6217692128       36.0848682423  MEMB      122             0.0000000000
     16253       128  POPC      H8Y            51.0609586849       67.8752788564       35.8305860709  MEMB      122             0.0000000000
     16254       128  POPC      C39            51.4378788800       66.5450174930       37.5109473499  MEMB      122             0.0000000000
     16255       128  POPC      H9X            50.9302773846       67.2460252614       38.2118657424  MEMB      122             0.0000000000
     16256       128  POPC      H9Y            52.5301583730       66.7479249764       37.5545309491  MEMB      122             0.0000000000
     16257       128  POPC      C310           51.1476474742       65.1087432778       37.9628149078  MEMB      122             0.0000000000
     16258       128  POPC      H10X           51.7070456600       64.3791129711       37.3383746076  MEMB      122             0.0000000000
     16259       128  POPC      H10Y           50.0601636915       64.9225037068       37.8065060972  MEMB      122             0.0000000000
     16260       128  POPC      C311           51.4831487508       64.8295274585       39.4279358575  MEMB      122             0.0000000000
     16261       128  POPC      H11X           51.0328234662       65.6257434877       40.0643450310  MEMB      122             0.0000000000
     16262       128  POPC      H11Y           52.5847207859       64.8505300042       39.5758097099  MEMB      122             0.0000000000
     16263       128  POPC      C312           50.9117986958       63.4730749544       39.8514871021  MEMB      122             0.0000000000
     16264       128  POPC      H12X           51.2762562415       62.6667503614       39.1773734453  MEMB      122             0.0000000000
     16265       128  POPC      H12Y           49.8048102267       63.5318944150       39.7384250325  MEMB      122             0.0000000000
     16266       128  POPC      C313           51.2277366018       63.1165458279       41.3030792287  MEMB      122             0.0000000000
     16267       128  POPC      H13X           51.0316123529       64.0219114989       41.9191015532  MEMB      122             0.0000000000
     16268       128  POPC      H13Y           52.3066946207       62.8718180182       41.4220392158  MEMB      122             0.0000000000
     16269       128  POPC      C314           50.3620306143       61.9510341858       41.8019583752  MEMB      122             0.0000000000
     16270       128  POPC      H14X           50.8875046710       60.9932982579       41.5877265691  MEMB      122             0.0000000000
     16271       128  POPC      H14Y           49.3990642632       61.9328799314       41.2433989510  MEMB      122             0.0000000000
     16272       128  POPC      C315           50.0292104167       62.0623682111       43.2917154406  MEMB      122             0.0000000000
     16273       128  POPC      H15X           50.9673293331       62.2549763423       43.8611610364  MEMB      122             0.0000000000
     16274       128  POPC      H15Y           49.6193357090       61.0888867582       43.6471272275  MEMB      122             0.0000000000
     16275       128  POPC      C316           49.0200319504       63.1672848876       43.6056542964  MEMB      122             0.0000000000
     16276       128  POPC      H16X           48.9481302282       63.2886857389       44.7041215838  MEMB      122             0.0000000000
     16277       128  POPC      H16Y           48.0154474361       62.9156476866       43.2043543924  MEMB      122             0.0000000000
     16278       128  POPC      H16Z           49.3315892750       64.1410788388       43.1717393559  MEMB      122             0.0000000000
     16279       129  POPC      N               1.7858111931       18.0094214672       25.1723657005  MEMB      123             0.0000000000
     16280       129  POPC      C12             1.6843593766       17.1182385690       26.4155689705  MEMB      123             0.0000000000
     16281       129  POPC      H12A            1.1898288255       17.6407367186       27.2276894596  MEMB      123             0.0000000000
     16282       129  POPC      H12B            2.6742893942       16.8597419716       26.7731110005  MEMB      123             0.0000000000
     16283       129  POPC      C13             0.4094450576       18.3375944012       24.6525937143  MEMB      123             0.0000000000
     16284       129  POPC      H13A            0.3828595757       18.8546606004       23.7032539768  MEMB      123             0.0000000000
     16285       129  POPC      H13B           -0.1604168137       17.4059289258       24.5443154598  MEMB      123             0.0000000000
     16286       129  POPC      H13C           -0.1706877248       18.9083822863       25.3713249115  MEMB      123             0.0000000000
     16287       129  POPC      C14             2.5240241664       19.2622112619       25.4591487358  MEMB      123             0.0000000000
     16288       129  POPC      H14A            1.9713670962       19.9049895856       26.1404515977  MEMB      123             0.0000000000
     16289       129  POPC      H14B            3.5099704826       19.0474390268       25.8450609527  MEMB      123             0.0000000000
     16290       129  POPC      H14C            2.6789044143       19.8215413582       24.5424132424  MEMB      123             0.0000000000
     16291       129  POPC      C15             2.5464551624       17.2115746044       24.1562571577  MEMB      123             0.0000000000
     16292       129  POPC      H15A            2.5405998370       17.6868491993       23.1911643505  MEMB      123             0.0000000000
     16293       129  POPC      H15B            2.0609210656       16.2442718195       24.0569603372  MEMB      123             0.0000000000
     16294       129  POPC      H15C            3.5660880502       16.9931013038       24.4710289545  MEMB      123             0.0000000000
     16295       129  POPC      C11             0.9214237120       15.7795534819       26.2600391201  MEMB      123             0.0000000000
     16296       129  POPC      H11A            1.1548167804       15.1405116616       27.1510825163  MEMB      123             0.0000000000
     16297       129  POPC      H11B            1.2895731776       15.1990462170       25.3895480989  MEMB      123             0.0000000000
     16298       129  POPC      P              -1.4078288270       15.9707875565       27.3718698716  MEMB      123             0.0000000000
     16299       129  POPC      O13            -1.4900783591       14.5393978501       27.7621937783  MEMB      123             0.0000000000
     16300       129  POPC      O14            -2.6686211696       16.6646060553       27.0470776132  MEMB      123             0.0000000000
     16301       129  POPC      O12            -0.4752671644       16.0277828701       26.0960606246  MEMB      123             0.0000000000
     16302       129  POPC      O11            -0.5817305240       16.8516282817       28.4160010239  MEMB      123             0.0000000000
     16303       129  POPC      C1             -0.7928561691       18.2730628598       28.4450155996  MEMB      123             0.0000000000
     16304       129  POPC      HA             -1.8851091430       18.5173548304       28.4252854854  MEMB      123             0.0000000000
     16305       129  POPC      HB             -0.3485112276       18.7536200348       27.5493138238  MEMB      123             0.0000000000
     16306       129  POPC      C2             -0.2591398745       18.9637005768       29.7471591070  MEMB      123             0.0000000000
     16307       129  POPC      HS             -0.6397013832       20.0130348766       29.7273842158  MEMB      123             0.0000000000
     16308       129  POPC      O21             1.1714811539       18.9798915215       29.8730908181  MEMB      123             0.0000000000
     16309       129  POPC      C21             1.8856447833       19.6645153936       29.0327128707  MEMB      123             0.0000000000
     16310       129  POPC      O22             1.4861916860       20.3221468048       28.0836402406  MEMB      123             0.0000000000
     16311       129  POPC      C22             3.3665398899       19.5209767550       29.4137525616  MEMB      123             0.0000000000
     16312       129  POPC      H2R             3.7785895955       20.5467623799       29.4747722264  MEMB      123             0.0000000000
     16313       129  POPC      H2S             3.8762465189       18.9689533919       28.5981107519  MEMB      123             0.0000000000
     16314       129  POPC      C3             -0.8374942086       18.3093667424       31.0423673387  MEMB      123             0.0000000000
     16315       129  POPC      HX             -1.9114796238       18.1466606721       30.8571400583  MEMB      123             0.0000000000
     16316       129  POPC      HY             -0.7173055393       19.0368291048       31.8787862037  MEMB      123             0.0000000000
     16317       129  POPC      O31            -0.2379260280       17.0420593528       31.3719976574  MEMB      123             0.0000000000
     16318       129  POPC      C31            -0.7552549423       16.4782819575       32.4671018607  MEMB      123             0.0000000000
     16319       129  POPC      O32            -1.5731504488       17.0084347662       33.1973805239  MEMB      123             0.0000000000
     16320       129  POPC      C32            -0.0552674437       15.1388542939       32.6997934244  MEMB      123             0.0000000000
     16321       129  POPC      H2X             1.0207898042       15.3790160194       32.8192549606  MEMB      123             0.0000000000
     16322       129  POPC      H2Y            -0.1613752136       14.5207579469       31.7852985606  MEMB      123             0.0000000000
     16323       129  POPC      C23             3.6131694824       18.7831502125       30.7572014898  MEMB      123             0.0000000000
     16324       129  POPC      H3R             3.2391874661       17.7352276133       30.6885986836  MEMB      123             0.0000000000
     16325       129  POPC      H3S             3.0440495172       19.2859342500       31.5736526045  MEMB      123             0.0000000000
     16326       129  POPC      C24             5.0977576667       18.7407522124       31.1309333825  MEMB      123             0.0000000000
     16327       129  POPC      H4R             5.4727195118       19.7833265735       31.2150011931  MEMB      123             0.0000000000
     16328       129  POPC      H4S             5.6723814105       18.2469789419       30.3148809736  MEMB      123             0.0000000000
     16329       129  POPC      C25             5.3901480663       17.9969073832       32.4458327195  MEMB      123             0.0000000000
     16330       129  POPC      H5R             6.4819908755       18.0824821953       32.6476503995  MEMB      123             0.0000000000
     16331       129  POPC      H5S             5.1678688141       16.9124157948       32.3274822100  MEMB      123             0.0000000000
     16332       129  POPC      C26             4.6289492321       18.5353605331       33.6731543910  MEMB      123             0.0000000000
     16333       129  POPC      H6R             3.6496436936       18.0140299230       33.7560852824  MEMB      123             0.0000000000
     16334       129  POPC      H6S             4.4256320134       19.6209678842       33.5317559705  MEMB      123             0.0000000000
     16335       129  POPC      C27             5.4345501198       18.3614478157       34.9751541551  MEMB      123             0.0000000000
     16336       129  POPC      H7R             6.3063756590       19.0547360420       34.9626649471  MEMB      123             0.0000000000
     16337       129  POPC      H7S             5.8399532322       17.3270348662       34.9897610736  MEMB      123             0.0000000000
     16338       129  POPC      C28             4.6389911136       18.5637805658       36.2815549962  MEMB      123             0.0000000000
     16339       129  POPC      H8R             5.3360322206       18.3943894847       37.1332421423  MEMB      123             0.0000000000
     16340       129  POPC      H8S             3.8650656364       17.7661981226       36.3388606128  MEMB      123             0.0000000000
     16341       129  POPC      C29             3.9718519524       19.9123269668       36.3658479382  MEMB      123             0.0000000000
     16342       129  POPC      H91             3.2954596232       20.1179665006       35.5243361670  MEMB      123             0.0000000000
     16343       129  POPC      C210            4.1098999072       20.8562947547       37.3180509798  MEMB      123             0.0000000000
     16344       129  POPC      H101            3.5349461311       21.7906173797       37.2175330263  MEMB      123             0.0000000000
     16345       129  POPC      C211            4.9774160556       20.7971130162       38.5485588839  MEMB      123             0.0000000000
     16346       129  POPC      H11R            5.4406964283       21.7928647446       38.7318295571  MEMB      123             0.0000000000
     16347       129  POPC      H11S            5.8169329173       20.0744035619       38.4339161525  MEMB      123             0.0000000000
     16348       129  POPC      C212            4.1695174169       20.3965490896       39.7948047527  MEMB      123             0.0000000000
     16349       129  POPC      H12R            3.2834699735       21.0577109245       39.9210823317  MEMB      123             0.0000000000
     16350       129  POPC      H12S            4.8185821303       20.5473210869       40.6844739135  MEMB      123             0.0000000000
     16351       129  POPC      C213            3.7246242201       18.9301151509       39.7474090766  MEMB      123             0.0000000000
     16352       129  POPC      H13R            4.5851014338       18.3022113255       39.4196363450  MEMB      123             0.0000000000
     16353       129  POPC      H13S            2.9217805002       18.8184475785       38.9830411905  MEMB      123             0.0000000000
     16354       129  POPC      C214            3.2202458227       18.3880679392       41.0890351783  MEMB      123             0.0000000000
     16355       129  POPC      H14R            2.8444840769       17.3569513687       40.8917070068  MEMB      123             0.0000000000
     16356       129  POPC      H14S            2.3706259802       19.0007509458       41.4603218390  MEMB      123             0.0000000000
     16357       129  POPC      C215            4.3137460776       18.2963624304       42.1660867530  MEMB      123             0.0000000000
     16358       129  POPC      H15R            4.4567973354       19.2860010528       42.6514820920  MEMB      123             0.0000000000
     16359       129  POPC      H15S            5.2529437258       18.0417815858       41.6402668526  MEMB      123             0.0000000000
     16360       129  POPC      C216            4.0017391341       17.2327959067       43.2284066028  MEMB      123             0.0000000000
     16361       129  POPC      H16R            3.6981957314       16.2947492317       42.7121760431  MEMB      123             0.0000000000
     16362       129  POPC      H16S            3.1488459474       17.6044196625       43.8309282972  MEMB      123             0.0000000000
     16363       129  POPC      C217            5.1067138308       16.8864697438       44.2293001934  MEMB      123             0.0000000000
     16364       129  POPC      H17R            5.4643851434       17.8209646335       44.7176691544  MEMB      123             0.0000000000
     16365       129  POPC      H17S            5.9610945471       16.4322495591       43.6829981945  MEMB      123             0.0000000000
     16366       129  POPC      C218            4.6514944143       15.9110889648       45.3211163493  MEMB      123             0.0000000000
     16367       129  POPC      H18R            5.4106202050       15.1167617313       45.4623208708  MEMB      123             0.0000000000
     16368       129  POPC      H18S            3.6936472320       15.4204961989       45.0570847000  MEMB      123             0.0000000000
     16369       129  POPC      H18T            4.5177358050       16.4397055640       46.2876566440  MEMB      123             0.0000000000
     16370       129  POPC      C33            -0.5659221767       14.3760958736       33.9458218924  MEMB      123             0.0000000000
     16371       129  POPC      H3X            -1.3461023969       13.6590990858       33.6163449319  MEMB      123             0.0000000000
     16372       129  POPC      H3Y            -1.0553808456       15.0615002779       34.6733196999  MEMB      123             0.0000000000
     16373       129  POPC      C34             0.5383524111       13.6083105218       34.6927941095  MEMB      123             0.0000000000
     16374       129  POPC      H4X             1.0280992213       12.9061063090       33.9816224078  MEMB      123             0.0000000000
     16375       129  POPC      H4Y             0.0526442600       12.9924348430       35.4832389200  MEMB      123             0.0000000000
     16376       129  POPC      C35             1.6210589943       14.4895198749       35.3509447511  MEMB      123             0.0000000000
     16377       129  POPC      H5X             2.1892509085       15.0261647943       34.5600525225  MEMB      123             0.0000000000
     16378       129  POPC      H5Y             2.3512915245       13.8326663087       35.8744278688  MEMB      123             0.0000000000
     16379       129  POPC      C36             1.1010336186       15.5244078134       36.3661366660  MEMB      123             0.0000000000
     16380       129  POPC      H6X             0.3569020405       16.1949068188       35.8850858180  MEMB      123             0.0000000000
     16381       129  POPC      H6Y             1.9565648521       16.1639571153       36.6822395373  MEMB      123             0.0000000000
     16382       129  POPC      C37             0.4927194958       14.8886801310       37.6236770929  MEMB      123             0.0000000000
     16383       129  POPC      H7X             1.2508443194       14.2145177663       38.0833721454  MEMB      123             0.0000000000
     16384       129  POPC      H7Y            -0.3843132693       14.2629546812       37.3436217629  MEMB      123             0.0000000000
     16385       129  POPC      C38             0.0503127446       15.9249091012       38.6698657844  MEMB      123             0.0000000000
     16386       129  POPC      H8X            -0.7521424212       16.5579404322       38.2289062587  MEMB      123             0.0000000000
     16387       129  POPC      H8Y             0.9051565929       16.5922415234       38.9216724683  MEMB      123             0.0000000000
     16388       129  POPC      C39            -0.4731651442       15.2616672000       39.9510372724  MEMB      123             0.0000000000
     16389       129  POPC      H9X             0.2404241827       15.4196316904       40.7861300428  MEMB      123             0.0000000000
     16390       129  POPC      H9Y            -0.5115811408       14.1599395465       39.7715891586  MEMB      123             0.0000000000
     16391       129  POPC      C310           -1.8910170361       15.6932701558       40.3612312828  MEMB      123             0.0000000000
     16392       129  POPC      H10X           -2.2052424940       14.9730390422       41.1518837782  MEMB      123             0.0000000000
     16393       129  POPC      H10Y           -2.5862044424       15.5532701216       39.5077434544  MEMB      123             0.0000000000
     16394       129  POPC      C311           -2.0464729159       17.1109237479       40.9528662672  MEMB      123             0.0000000000
     16395       129  POPC      H11X           -2.6066470769       17.7511194478       40.2444601528  MEMB      123             0.0000000000
     16396       129  POPC      H11Y           -1.0489752781       17.5747821959       41.0602599055  MEMB      123             0.0000000000
     16397       129  POPC      C312           -2.7786633602       17.0243671893       42.3084654131  MEMB      123             0.0000000000
     16398       129  POPC      H12X           -2.2496086238       16.2529687788       42.9156194279  MEMB      123             0.0000000000
     16399       129  POPC      H12Y           -3.7983812994       16.6242456396       42.1107804137  MEMB      123             0.0000000000
     16400       129  POPC      C313           -2.9177456068       18.2741464490       43.2112582965  MEMB      123             0.0000000000
     16401       129  POPC      H13X           -2.6238850486       17.9748114674       44.2451668534  MEMB      123             0.0000000000
     16402       129  POPC      H13Y           -3.9960564582       18.5404728360       43.2638558171  MEMB      123             0.0000000000
     16403       129  POPC      C314           -2.1393150016       19.5522570564       42.8544113119  MEMB      123             0.0000000000
     16404       129  POPC      H14X           -2.4781361661       19.9169940917       41.8626240603  MEMB      123             0.0000000000
     16405       129  POPC      H14Y           -1.0509633965       19.3787474033       42.7635766295  MEMB      123             0.0000000000
     16406       129  POPC      C315           -2.3444739348       20.6342568368       43.9307399213  MEMB      123             0.0000000000
     16407       129  POPC      H15X           -1.8494408749       20.3063829149       44.8736355610  MEMB      123             0.0000000000
     16408       129  POPC      H15Y           -3.4340110033       20.7126160568       44.1511442155  MEMB      123             0.0000000000
     16409       129  POPC      C316           -1.8194078397       22.0151363470       43.5330285762  MEMB      123             0.0000000000
     16410       129  POPC      H16X           -2.2492487730       22.3330860618       42.5594362257  MEMB      123             0.0000000000
     16411       129  POPC      H16Y           -0.7123095225       22.0039150497       43.4386832467  MEMB      123             0.0000000000
     16412       129  POPC      H16Z           -2.1080079709       22.7705867052       44.2954709791  MEMB      123             0.0000000000
     16413       130  POPC      N              15.2048095531       65.2842116154       24.9409844347  MEMB      124             0.0000000000
     16414       130  POPC      C12            15.3363232187       63.7713706016       24.9842207565  MEMB      124             0.0000000000
     16415       130  POPC      H12A           16.3822108797       63.4880464247       25.0302182545  MEMB      124             0.0000000000
     16416       130  POPC      H12B           14.9713406470       63.3864542901       24.0344494090  MEMB      124             0.0000000000
     16417       130  POPC      C13            13.7805782619       65.7296867920       25.0724806337  MEMB      124             0.0000000000
     16418       130  POPC      H13A           13.3475210074       65.3970287910       26.0221914948  MEMB      124             0.0000000000
     16419       130  POPC      H13B           13.7019797341       66.7988256051       25.0147191875  MEMB      124             0.0000000000
     16420       130  POPC      H13C           13.1510911905       65.3093653599       24.2927533816  MEMB      124             0.0000000000
     16421       130  POPC      C14            15.9643326665       65.9339061170       26.0514833738  MEMB      124             0.0000000000
     16422       130  POPC      H14A           15.8078673652       67.0091533811       26.0333624876  MEMB      124             0.0000000000
     16423       130  POPC      H14B           15.6349624419       65.5453075034       27.0095707814  MEMB      124             0.0000000000
     16424       130  POPC      H14C           17.0202892074       65.7638470525       25.9431782862  MEMB      124             0.0000000000
     16425       130  POPC      C15            15.7269115837       65.7853783466       23.6379003746  MEMB      124             0.0000000000
     16426       130  POPC      H15A           16.7521262063       65.4693611298       23.4590967773  MEMB      124             0.0000000000
     16427       130  POPC      H15B           15.6699048098       66.8616634256       23.6070946151  MEMB      124             0.0000000000
     16428       130  POPC      H15C           15.1425255445       65.4249372236       22.7901433002  MEMB      124             0.0000000000
     16429       130  POPC      C11            14.5661625861       63.0099456120       26.0721036423  MEMB      124             0.0000000000
     16430       130  POPC      H11A           14.7136661610       63.5243153535       27.0537169029  MEMB      124             0.0000000000
     16431       130  POPC      H11B           14.9663743221       61.9732022437       26.1768778657  MEMB      124             0.0000000000
     16432       130  POPC      P              12.0508577255       63.0217544801       26.7468060983  MEMB      124             0.0000000000
     16433       130  POPC      O13            10.8935404125       62.4001677638       26.0641601643  MEMB      124             0.0000000000
     16434       130  POPC      O14            11.9131894381       64.4094501425       27.2324564874  MEMB      124             0.0000000000
     16435       130  POPC      O12            13.2039444713       62.9421757654       25.6602953237  MEMB      124             0.0000000000
     16436       130  POPC      O11            12.7043506263       62.1206159453       27.8976733125  MEMB      124             0.0000000000
     16437       130  POPC      C1             11.9360106633       61.4641647652       28.9075203167  MEMB      124             0.0000000000
     16438       130  POPC      HA             11.9858846319       60.3687652597       28.7079919699  MEMB      124             0.0000000000
     16439       130  POPC      HB             10.8606980886       61.7368860136       28.8533533816  MEMB      124             0.0000000000
     16440       130  POPC      C2             12.4157715398       61.6541821607       30.4068546172  MEMB      124             0.0000000000
     16441       130  POPC      HS             11.8606540809       60.8572719459       30.9585293389  MEMB      124             0.0000000000
     16442       130  POPC      O21            12.1028401327       62.9746848425       30.9154043078  MEMB      124             0.0000000000
     16443       130  POPC      C21            11.7922258578       63.0176864443       32.2181861078  MEMB      124             0.0000000000
     16444       130  POPC      O22            11.5911296523       62.0380531169       32.9177566999  MEMB      124             0.0000000000
     16445       130  POPC      C22            11.7403367192       64.4650653909       32.7213457488  MEMB      124             0.0000000000
     16446       130  POPC      H2R            10.8156315987       64.9154371137       32.3046964043  MEMB      124             0.0000000000
     16447       130  POPC      H2S            12.6124630423       65.0126917712       32.3105243277  MEMB      124             0.0000000000
     16448       130  POPC      C3             13.9385165857       61.3995205879       30.6320080709  MEMB      124             0.0000000000
     16449       130  POPC      HX             14.5202216100       62.3272710535       30.4203206708  MEMB      124             0.0000000000
     16450       130  POPC      HY             14.2661223186       60.6482881605       29.8813753658  MEMB      124             0.0000000000
     16451       130  POPC      O31            14.1907072322       60.8413594738       31.9478478776  MEMB      124             0.0000000000
     16452       130  POPC      C31            14.5248359713       61.6892064310       32.9154536512  MEMB      124             0.0000000000
     16453       130  POPC      O32            14.6775948971       62.8918965668       32.8028073228  MEMB      124             0.0000000000
     16454       130  POPC      C32            14.6562199573       60.9356246233       34.2423489537  MEMB      124             0.0000000000
     16455       130  POPC      H2X            15.4114891459       61.4985645585       34.8322818629  MEMB      124             0.0000000000
     16456       130  POPC      H2Y            15.0409369047       59.9157218895       34.0448251464  MEMB      124             0.0000000000
     16457       130  POPC      C23            11.7332617401       64.5721526018       34.2676717962  MEMB      124             0.0000000000
     16458       130  POPC      H3R            12.7602359249       64.8167202104       34.6172553031  MEMB      124             0.0000000000
     16459       130  POPC      H3S            11.4592313948       63.6011531792       34.7396308754  MEMB      124             0.0000000000
     16460       130  POPC      C24            10.7242449674       65.6014646027       34.7987029618  MEMB      124             0.0000000000
     16461       130  POPC      H4R             9.7147807704       65.3046222948       34.4271076739  MEMB      124             0.0000000000
     16462       130  POPC      H4S            10.9546629816       66.6088399838       34.3920170321  MEMB      124             0.0000000000
     16463       130  POPC      C25            10.6819027438       65.6422936594       36.3345455248  MEMB      124             0.0000000000
     16464       130  POPC      H5R            10.6302170300       64.5890858275       36.6940996460  MEMB      124             0.0000000000
     16465       130  POPC      H5S             9.7551515367       66.1528503345       36.6809366498  MEMB      124             0.0000000000
     16466       130  POPC      C26            11.8975815285       66.3213476063       36.9797767231  MEMB      124             0.0000000000
     16467       130  POPC      H6R            11.6640478211       67.3866502382       37.1962331693  MEMB      124             0.0000000000
     16468       130  POPC      H6S            12.7433070942       66.3107336904       36.2570121402  MEMB      124             0.0000000000
     16469       130  POPC      C27            12.3463735900       65.5956379295       38.2586075545  MEMB      124             0.0000000000
     16470       130  POPC      H7R            12.6399529937       64.5583424075       37.9751229705  MEMB      124             0.0000000000
     16471       130  POPC      H7S            11.4796094696       65.5182423749       38.9494422212  MEMB      124             0.0000000000
     16472       130  POPC      C28            13.5065099177       66.2739744026       39.0150738334  MEMB      124             0.0000000000
     16473       130  POPC      H8R            13.8223447657       65.5987994314       39.8421611829  MEMB      124             0.0000000000
     16474       130  POPC      H8S            13.1157324649       67.1980980234       39.4955731656  MEMB      124             0.0000000000
     16475       130  POPC      C29            14.6801683701       66.6220029753       38.1363419972  MEMB      124             0.0000000000
     16476       130  POPC      H91            14.7537262697       67.6877172354       37.8692102141  MEMB      124             0.0000000000
     16477       130  POPC      C210           15.5718723510       65.7579511763       37.6195153259  MEMB      124             0.0000000000
     16478       130  POPC      H101           16.3569140197       66.1497352886       36.9552156580  MEMB      124             0.0000000000
     16479       130  POPC      C211           15.5909526117       64.2596982197       37.8060785457  MEMB      124             0.0000000000
     16480       130  POPC      H11R           15.5731928140       63.7720691413       36.8048650380  MEMB      124             0.0000000000
     16481       130  POPC      H11S           14.6937625488       63.8934320918       38.3510165759  MEMB      124             0.0000000000
     16482       130  POPC      C212           16.8445504534       63.7648382279       38.5494821690  MEMB      124             0.0000000000
     16483       130  POPC      H12R           17.7514405028       64.1209049078       38.0127731680  MEMB      124             0.0000000000
     16484       130  POPC      H12S           16.8619613377       62.6531360331       38.5219622063  MEMB      124             0.0000000000
     16485       130  POPC      C213           16.9311073088       64.2215662746       40.0127862749  MEMB      124             0.0000000000
     16486       130  POPC      H13R           16.7912190268       65.3241146884       40.0699990179  MEMB      124             0.0000000000
     16487       130  POPC      H13S           17.9580472204       64.0037558425       40.3878043875  MEMB      124             0.0000000000
     16488       130  POPC      C214           15.9235963139       63.5301706003       40.9425189701  MEMB      124             0.0000000000
     16489       130  POPC      H14R           16.0922662491       62.4307875116       40.9158739007  MEMB      124             0.0000000000
     16490       130  POPC      H14S           14.8838976537       63.7189856377       40.5984856193  MEMB      124             0.0000000000
     16491       130  POPC      C215           16.0879364461       64.0449130707       42.3739347965  MEMB      124             0.0000000000
     16492       130  POPC      H15R           15.8835573337       65.1394048017       42.3834606787  MEMB      124             0.0000000000
     16493       130  POPC      H15S           17.1472412139       63.8964984757       42.6755664896  MEMB      124             0.0000000000
     16494       130  POPC      C216           15.1982303838       63.3648382022       43.4165589023  MEMB      124             0.0000000000
     16495       130  POPC      H16R           15.3234523637       62.2612943174       43.3446665622  MEMB      124             0.0000000000
     16496       130  POPC      H16S           14.1388861089       63.6109917740       43.1931557681  MEMB      124             0.0000000000
     16497       130  POPC      C217           15.5528051167       63.8195533522       44.8399616474  MEMB      124             0.0000000000
     16498       130  POPC      H17R           15.3314026119       64.9070375463       44.9247540195  MEMB      124             0.0000000000
     16499       130  POPC      H17S           16.6508405386       63.6841598812       44.9815906799  MEMB      124             0.0000000000
     16500       130  POPC      C218           14.8280213675       63.0693179369       45.9583023132  MEMB      124             0.0000000000
     16501       130  POPC      H18R           15.2773313142       63.3073516452       46.9464259287  MEMB      124             0.0000000000
     16502       130  POPC      H18S           14.9047090047       61.9741190944       45.7888072157  MEMB      124             0.0000000000
     16503       130  POPC      H18T           13.7544038658       63.3481725984       45.9954923498  MEMB      124             0.0000000000
     16504       130  POPC      C33            13.3799871399       60.8596969507       35.1123810832  MEMB      124             0.0000000000
     16505       130  POPC      H3X            12.6971974790       60.0784377834       34.7102558338  MEMB      124             0.0000000000
     16506       130  POPC      H3Y            12.8384291959       61.8313816082       35.0962144307  MEMB      124             0.0000000000
     16507       130  POPC      C34            13.7638599058       60.5567036607       36.5656434676  MEMB      124             0.0000000000
     16508       130  POPC      H4X            14.4070302983       61.3817645666       36.9468977936  MEMB      124             0.0000000000
     16509       130  POPC      H4Y            14.3773261196       59.6262179402       36.5734055056  MEMB      124             0.0000000000
     16510       130  POPC      C35            12.5792166907       60.3744391636       37.5192312933  MEMB      124             0.0000000000
     16511       130  POPC      H5X            11.9522170002       59.5286880141       37.1588383829  MEMB      124             0.0000000000
     16512       130  POPC      H5Y            11.9335113024       61.2808452732       37.5258917447  MEMB      124             0.0000000000
     16513       130  POPC      C36            13.0655948841       60.0779216693       38.9447182101  MEMB      124             0.0000000000
     16514       130  POPC      H6X            13.3112482107       61.0375610892       39.4485350331  MEMB      124             0.0000000000
     16515       130  POPC      H6Y            14.0045321195       59.4777586393       38.8955737063  MEMB      124             0.0000000000
     16516       130  POPC      C37            12.0507873700       59.2737399373       39.7629414066  MEMB      124             0.0000000000
     16517       130  POPC      H7X            11.9599271225       58.2733076724       39.3001696957  MEMB      124             0.0000000000
     16518       130  POPC      H7Y            11.0460412201       59.7419448080       39.7046904412  MEMB      124             0.0000000000
     16519       130  POPC      C38            12.4710406956       59.0562049332       41.2217721371  MEMB      124             0.0000000000
     16520       130  POPC      H8X            13.4629821729       58.5548633680       41.2410116619  MEMB      124             0.0000000000
     16521       130  POPC      H8Y            11.7402180857       58.3693718899       41.7064477323  MEMB      124             0.0000000000
     16522       130  POPC      C39            12.5607633862       60.3399235048       42.0484853580  MEMB      124             0.0000000000
     16523       130  POPC      H9X            13.3896476320       60.9769049623       41.6680239809  MEMB      124             0.0000000000
     16524       130  POPC      H9Y            12.8116878102       60.0551198351       43.0941018151  MEMB      124             0.0000000000
     16525       130  POPC      C310           11.2554801900       61.1413268836       42.0411516693  MEMB      124             0.0000000000
     16526       130  POPC      H10X           10.4447825171       60.5293139413       42.4943344858  MEMB      124             0.0000000000
     16527       130  POPC      H10Y           10.9693910659       61.3666520434       40.9924924722  MEMB      124             0.0000000000
     16528       130  POPC      C311           11.3651453881       62.4849604215       42.7636234735  MEMB      124             0.0000000000
     16529       130  POPC      H11X           10.3658118910       62.9669953414       42.7938288275  MEMB      124             0.0000000000
     16530       130  POPC      H11Y           12.0303730867       63.1496989637       42.1646856671  MEMB      124             0.0000000000
     16531       130  POPC      C312           11.9412182319       62.3840101726       44.1778756949  MEMB      124             0.0000000000
     16532       130  POPC      H12X           12.0512333443       63.4156534212       44.5682758283  MEMB      124             0.0000000000
     16533       130  POPC      H12Y           12.9686270725       61.9619574567       44.1214689184  MEMB      124             0.0000000000
     16534       130  POPC      C313           11.1532031906       61.5226885774       45.1766675608  MEMB      124             0.0000000000
     16535       130  POPC      H13X           11.6580306732       61.6266587462       46.1616442297  MEMB      124             0.0000000000
     16536       130  POPC      H13Y           11.2403306720       60.4514948781       44.8845319263  MEMB      124             0.0000000000
     16537       130  POPC      C314            9.6610478999       61.8555720270       45.3512373569  MEMB      124             0.0000000000
     16538       130  POPC      H14X            9.2971342337       61.3007908438       46.2457956680  MEMB      124             0.0000000000
     16539       130  POPC      H14Y            9.0997680160       61.4694684777       44.4688762094  MEMB      124             0.0000000000
     16540       130  POPC      C315            9.3068842937       63.3420901131       45.5267779440  MEMB      124             0.0000000000
     16541       130  POPC      H15X            8.2736898320       63.3964520353       45.9428121480  MEMB      124             0.0000000000
     16542       130  POPC      H15Y            9.2705476679       63.8092726484       44.5194156889  MEMB      124             0.0000000000
     16543       130  POPC      C316           10.2493373343       64.1738552865       46.4033847446  MEMB      124             0.0000000000
     16544       130  POPC      H16X            9.6850046700       64.9632031035       46.9423952852  MEMB      124             0.0000000000
     16545       130  POPC      H16Y           11.0122939382       64.6912523437       45.7864651343  MEMB      124             0.0000000000
     16546       130  POPC      H16Z           10.7756206905       63.5356323196       47.1418490124  MEMB      124             0.0000000000
     16547       131  POPC      N              57.1239648542        3.8049552780       27.5133683783  MEMB      125             0.0000000000
     16548       131  POPC      C12            56.2052542221        4.8516397840       26.8774603500  MEMB      125             0.0000000000
     16549       131  POPC      H12A           56.2531549195        5.7545347536       27.4950019840  MEMB      125             0.0000000000
     16550       131  POPC      H12B           55.1705511148        4.5514025183       26.9076254803  MEMB      125             0.0000000000
     16551       131  POPC      C13            58.3018823419        4.5612855047       28.0685641264  MEMB      125             0.0000000000
     16552       131  POPC      H13A           58.9744087620        3.9568647727       28.6518506832  MEMB      125             0.0000000000
     16553       131  POPC      H13B           58.9042519983        4.9752571612       27.2426512632  MEMB      125             0.0000000000
     16554       131  POPC      H13C           57.9923924868        5.4458544118       28.6272833218  MEMB      125             0.0000000000
     16555       131  POPC      C14            56.4114005095        3.1135684079       28.6192366844  MEMB      125             0.0000000000
     16556       131  POPC      H14A           55.5009200279        2.6343521913       28.2889335238  MEMB      125             0.0000000000
     16557       131  POPC      H14B           57.0450637406        2.3553299502       29.0671943659  MEMB      125             0.0000000000
     16558       131  POPC      H14C           56.1594248086        3.8335721311       29.3927402656  MEMB      125             0.0000000000
     16559       131  POPC      C15            57.6562387707        2.8708924651       26.4708067536  MEMB      125             0.0000000000
     16560       131  POPC      H15A           58.2399957135        3.4956299663       25.7801626412  MEMB      125             0.0000000000
     16561       131  POPC      H15B           56.8653556489        2.4225718740       25.8900318224  MEMB      125             0.0000000000
     16562       131  POPC      H15C           58.3070684011        2.1175884649       26.8855029073  MEMB      125             0.0000000000
     16563       131  POPC      C11            56.5120101428        5.3253029901       25.4300156350  MEMB      125             0.0000000000
     16564       131  POPC      H11A           55.8554054715        6.2086403677       25.2065098833  MEMB      125             0.0000000000
     16565       131  POPC      H11B           56.1825216466        4.5533753191       24.7175468180  MEMB      125             0.0000000000
     16566       131  POPC      P              58.3638367811        7.0638965791       25.6879238197  MEMB      125             0.0000000000
     16567       131  POPC      O13            58.0727536187        8.0601501088       24.6214192111  MEMB      125             0.0000000000
     16568       131  POPC      O14            59.7610546771        6.9588402469       26.1523804691  MEMB      125             0.0000000000
     16569       131  POPC      O12            57.9092890217        5.5991524158       25.2198191937  MEMB      125             0.0000000000
     16570       131  POPC      O11            57.4390976307        7.3008580887       26.9605017888  MEMB      125             0.0000000000
     16571       131  POPC      C1             57.1196087139        8.6042091090       27.4535845306  MEMB      125             0.0000000000
     16572       131  POPC      HA             56.0494313819        8.6193711602       27.7583895821  MEMB      125             0.0000000000
     16573       131  POPC      HB             57.2389365204        9.3752062894       26.6560660518  MEMB      125             0.0000000000
     16574       131  POPC      C2             57.9952841864        9.0631082314       28.6649763385  MEMB      125             0.0000000000
     16575       131  POPC      HS             58.0650942260       10.1749806496       28.6215285202  MEMB      125             0.0000000000
     16576       131  POPC      O21            59.2987178052        8.4704107530       28.5162325633  MEMB      125             0.0000000000
     16577       131  POPC      C21            60.1679856234        8.6496464477       29.4707963250  MEMB      125             0.0000000000
     16578       131  POPC      O22            60.0585559228        9.4353868706       30.3987916603  MEMB      125             0.0000000000
     16579       131  POPC      C22            61.3362573292        7.6896390747       29.3248042462  MEMB      125             0.0000000000
     16580       131  POPC      H2R            62.0208592513        7.9027526438       30.1701360048  MEMB      125             0.0000000000
     16581       131  POPC      H2S            61.8662553064        7.9072304663       28.3754129128  MEMB      125             0.0000000000
     16582       131  POPC      C3             57.3428002116        8.6929669836       30.0488986727  MEMB      125             0.0000000000
     16583       131  POPC      HX             56.2504718528        8.8739379747       29.9509122387  MEMB      125             0.0000000000
     16584       131  POPC      HY             57.7201263842        9.4208444767       30.8056803990  MEMB      125             0.0000000000
     16585       131  POPC      O31            57.5998740928        7.3275025529       30.4647000573  MEMB      125             0.0000000000
     16586       131  POPC      C31            57.0941368259        7.0320083370       31.6480667035  MEMB      125             0.0000000000
     16587       131  POPC      O32            56.5879173912        7.8090473342       32.4364769852  MEMB      125             0.0000000000
     16588       131  POPC      C32            57.2623633457        5.5302007434       31.8674776496  MEMB      125             0.0000000000
     16589       131  POPC      H2X            58.2977504704        5.2625785877       31.5694012880  MEMB      125             0.0000000000
     16590       131  POPC      H2Y            56.5592966142        5.0174439238       31.1820259008  MEMB      125             0.0000000000
     16591       131  POPC      C23            60.8857903388        6.2121139236       29.3417996420  MEMB      125             0.0000000000
     16592       131  POPC      H3R            60.8498334899        5.8866870611       28.2725372341  MEMB      125             0.0000000000
     16593       131  POPC      H3S            59.8695650501        6.1034500846       29.7834747869  MEMB      125             0.0000000000
     16594       131  POPC      C24            61.8453318126        5.2820784982       30.0879773956  MEMB      125             0.0000000000
     16595       131  POPC      H4R            62.8884433414        5.4953793547       29.7577741676  MEMB      125             0.0000000000
     16596       131  POPC      H4S            61.6412385473        4.2278612760       29.7958651067  MEMB      125             0.0000000000
     16597       131  POPC      C25            61.7584632135        5.4165019571       31.6083092528  MEMB      125             0.0000000000
     16598       131  POPC      H5R            60.6966639497        5.3342653246       31.9281524062  MEMB      125             0.0000000000
     16599       131  POPC      H5S            62.1337798606        6.4192864538       31.9102245692  MEMB      125             0.0000000000
     16600       131  POPC      C26            62.5940579123        4.3457206894       32.3131529165  MEMB      125             0.0000000000
     16601       131  POPC      H6R            63.5630863436        4.2216879825       31.7783702095  MEMB      125             0.0000000000
     16602       131  POPC      H6S            62.0691957250        3.3686271018       32.2336734418  MEMB      125             0.0000000000
     16603       131  POPC      C27            62.8875520925        4.6709735863       33.7855500178  MEMB      125             0.0000000000
     16604       131  POPC      H7R            63.6561817490        5.4706313978       33.8387746128  MEMB      125             0.0000000000
     16605       131  POPC      H7S            63.3495110707        3.7583397369       34.2174384321  MEMB      125             0.0000000000
     16606       131  POPC      C28            61.6389701116        5.1091916448       34.5785675059  MEMB      125             0.0000000000
     16607       131  POPC      H8R            60.7710852915        4.6067385716       34.1014440221  MEMB      125             0.0000000000
     16608       131  POPC      H8S            61.4888615913        6.2045316704       34.4525200605  MEMB      125             0.0000000000
     16609       131  POPC      C29            61.7126808081        4.6924210944       36.0252299568  MEMB      125             0.0000000000
     16610       131  POPC      H91            61.9077265992        3.6180603398       36.1620835049  MEMB      125             0.0000000000
     16611       131  POPC      C210           61.5688101746        5.4517547380       37.1256290530  MEMB      125             0.0000000000
     16612       131  POPC      H101           61.6448115603        4.9619592623       38.1082600254  MEMB      125             0.0000000000
     16613       131  POPC      C211           61.2911589817        6.9305042971       37.1885776725  MEMB      125             0.0000000000
     16614       131  POPC      H11R           60.5837258712        7.2414730914       36.3885451444  MEMB      125             0.0000000000
     16615       131  POPC      H11S           62.2416583475        7.4822500224       37.0264769939  MEMB      125             0.0000000000
     16616       131  POPC      C212           60.7312909534        7.3796866908       38.5571245996  MEMB      125             0.0000000000
     16617       131  POPC      H12R           60.6417331366        8.4895294946       38.5595566712  MEMB      125             0.0000000000
     16618       131  POPC      H12S           61.4555277582        7.1231395615       39.3594386860  MEMB      125             0.0000000000
     16619       131  POPC      C213           59.3617122548        6.7740984075       38.8955095690  MEMB      125             0.0000000000
     16620       131  POPC      H13R           59.3962086799        5.6700493628       38.7774218378  MEMB      125             0.0000000000
     16621       131  POPC      H13S           58.6194799185        7.1518232036       38.1561461534  MEMB      125             0.0000000000
     16622       131  POPC      C214           58.8677532567        7.1099857484       40.3141247296  MEMB      125             0.0000000000
     16623       131  POPC      H14R           57.8012248026        6.7934581791       40.3852036222  MEMB      125             0.0000000000
     16624       131  POPC      H14S           58.9043334469        8.2114983964       40.4678526304  MEMB      125             0.0000000000
     16625       131  POPC      C215           59.6295044155        6.4110841581       41.4574092756  MEMB      125             0.0000000000
     16626       131  POPC      H15R           59.0948922969        6.6410530009       42.4041014855  MEMB      125             0.0000000000
     16627       131  POPC      H15S           60.6532201080        6.8348892176       41.5511375134  MEMB      125             0.0000000000
     16628       131  POPC      C216           59.7384345105        4.8851051883       41.2875322926  MEMB      125             0.0000000000
     16629       131  POPC      H16R           60.5562046153        4.6837519859       40.5590501991  MEMB      125             0.0000000000
     16630       131  POPC      H16S           58.8093074562        4.4847879203       40.8351458832  MEMB      125             0.0000000000
     16631       131  POPC      C217           60.0418380796        4.1167787528       42.5867238279  MEMB      125             0.0000000000
     16632       131  POPC      H17R           60.9492988791        4.5734385283       43.0353870752  MEMB      125             0.0000000000
     16633       131  POPC      H17S           60.2901427985        3.0671036991       42.3085383547  MEMB      125             0.0000000000
     16634       131  POPC      C218           58.9404018677        4.0670312431       43.6542350023  MEMB      125             0.0000000000
     16635       131  POPC      H18R           58.0910900836        3.4376395215       43.3162400151  MEMB      125             0.0000000000
     16636       131  POPC      H18S           58.5612232492        5.0816144497       43.8895357627  MEMB      125             0.0000000000
     16637       131  POPC      H18T           59.3312650659        3.6268031644       44.5959335681  MEMB      125             0.0000000000
     16638       131  POPC      C33            57.0050325629        5.0813964666       33.3250518388  MEMB      125             0.0000000000
     16639       131  POPC      H3X            55.9719376931        5.3509592903       33.6433375794  MEMB      125             0.0000000000
     16640       131  POPC      H3Y            57.7148438299        5.6150177524       33.9990297758  MEMB      125             0.0000000000
     16641       131  POPC      C34            57.2061965597        3.5637466742       33.4654266299  MEMB      125             0.0000000000
     16642       131  POPC      H4X            58.1915878116        3.3049207625       33.0136913237  MEMB      125             0.0000000000
     16643       131  POPC      H4Y            56.4216016961        3.0389060310       32.8765929485  MEMB      125             0.0000000000
     16644       131  POPC      C35            57.1953234652        3.0419938288       34.9120669231  MEMB      125             0.0000000000
     16645       131  POPC      H5X            57.3967878563        1.9469714873       34.8860160887  MEMB      125             0.0000000000
     16646       131  POPC      H5Y            56.1907305718        3.1810743273       35.3648573703  MEMB      125             0.0000000000
     16647       131  POPC      C36            58.2585009367        3.7071351678       35.7978257062  MEMB      125             0.0000000000
     16648       131  POPC      H6X            57.8521759905        4.6332094998       36.2608543065  MEMB      125             0.0000000000
     16649       131  POPC      H6Y            59.0909249528        4.0206550257       35.1338417538  MEMB      125             0.0000000000
     16650       131  POPC      C37            58.8570010699        2.7853198198       36.8734754438  MEMB      125             0.0000000000
     16651       131  POPC      H7X            59.6274077458        3.3604629201       37.4347983727  MEMB      125             0.0000000000
     16652       131  POPC      H7Y            59.3711275827        1.9300678975       36.3803234937  MEMB      125             0.0000000000
     16653       131  POPC      C38            57.8483772317        2.2497487152       37.8958731695  MEMB      125             0.0000000000
     16654       131  POPC      H8X            58.4178002761        1.7279544114       38.6979472931  MEMB      125             0.0000000000
     16655       131  POPC      H8Y            57.1748507098        1.5070732838       37.4153393581  MEMB      125             0.0000000000
     16656       131  POPC      C39            57.0094090574        3.3589750715       38.5329565731  MEMB      125             0.0000000000
     16657       131  POPC      H9X            56.2238045763        3.6782810312       37.8153782692  MEMB      125             0.0000000000
     16658       131  POPC      H9Y            57.6672500272        4.2355281770       38.7291053631  MEMB      125             0.0000000000
     16659       131  POPC      C310           56.3553679329        2.9584430113       39.8602201453  MEMB      125             0.0000000000
     16660       131  POPC      H10X           57.1614168092        2.6863357077       40.5777149658  MEMB      125             0.0000000000
     16661       131  POPC      H10Y           55.7088840209        2.0657465096       39.7166031751  MEMB      125             0.0000000000
     16662       131  POPC      C311           55.5377574623        4.1187711106       40.4391230572  MEMB      125             0.0000000000
     16663       131  POPC      H11X           54.4504178601        3.8965016083       40.4067241142  MEMB      125             0.0000000000
     16664       131  POPC      H11Y           55.7234529224        5.0035201465       39.7935613421  MEMB      125             0.0000000000
     16665       131  POPC      C312           55.9652622880        4.5347676911       41.8449656421  MEMB      125             0.0000000000
     16666       131  POPC      H12X           57.0667345541        4.6294197400       41.8545637244  MEMB      125             0.0000000000
     16667       131  POPC      H12Y           55.6792525960        3.7556020319       42.5847645718  MEMB      125             0.0000000000
     16668       131  POPC      C313           55.4079477830        5.9006340934       42.2541032860  MEMB      125             0.0000000000
     16669       131  POPC      H13X           54.3014888539        5.8176534177       42.2919056172  MEMB      125             0.0000000000
     16670       131  POPC      H13Y           55.6553645328        6.6620538699       41.4796232727  MEMB      125             0.0000000000
     16671       131  POPC      C314           55.9866259877        6.3589155627       43.6001365088  MEMB      125             0.0000000000
     16672       131  POPC      H14X           57.0373679268        6.6934883844       43.4549518665  MEMB      125             0.0000000000
     16673       131  POPC      H14Y           56.0018085923        5.4866085781       44.2951697872  MEMB      125             0.0000000000
     16674       131  POPC      C315           55.1751371971        7.4698449749       44.2645150108  MEMB      125             0.0000000000
     16675       131  POPC      H15X           55.1873478445        8.3809476429       43.6235244394  MEMB      125             0.0000000000
     16676       131  POPC      H15Y           55.6631362850        7.7408708070       45.2293202961  MEMB      125             0.0000000000
     16677       131  POPC      C316           53.7306551118        7.0449437143       44.5284797034  MEMB      125             0.0000000000
     16678       131  POPC      H16X           53.6253998511        5.9390742673       44.4972525262  MEMB      125             0.0000000000
     16679       131  POPC      H16Y           53.0564379157        7.4748308706       43.7540673143  MEMB      125             0.0000000000
     16680       131  POPC      H16Z           53.4021309787        7.3883666638       45.5304734633  MEMB      125             0.0000000000
     16681       132  POPC      N              64.3405350168       55.1041496768       27.0988799908  MEMB      126             0.0000000000
     16682       132  POPC      C12            64.2379099450       54.7699064971       25.6139369240  MEMB      126             0.0000000000
     16683       132  POPC      H12A           63.5975625295       53.8979940326       25.4944601773  MEMB      126             0.0000000000
     16684       132  POPC      H12B           65.2195882265       54.4954517094       25.2529890777  MEMB      126             0.0000000000
     16685       132  POPC      C13            63.0120867957       55.5911736769       27.5909389854  MEMB      126             0.0000000000
     16686       132  POPC      H13A           62.2711307853       54.8037009102       27.5716074860  MEMB      126             0.0000000000
     16687       132  POPC      H13B           63.0948104363       55.9394118427       28.6131327589  MEMB      126             0.0000000000
     16688       132  POPC      H13C           62.6835544875       56.4249740793       26.9691029624  MEMB      126             0.0000000000
     16689       132  POPC      C14            64.6798727909       53.8734849783       27.8567641303  MEMB      126             0.0000000000
     16690       132  POPC      H14A           63.9004914615       53.1207413178       27.7164304006  MEMB      126             0.0000000000
     16691       132  POPC      H14B           65.5802178925       53.3715414005       27.5286967666  MEMB      126             0.0000000000
     16692       132  POPC      H14C           64.7418136705       54.0475937016       28.9316376958  MEMB      126             0.0000000000
     16693       132  POPC      C15            65.3411484095       56.1736677008       27.3800757732  MEMB      126             0.0000000000
     16694       132  POPC      H15A           66.3334361639       55.8675981541       27.1035630415  MEMB      126             0.0000000000
     16695       132  POPC      H15B           65.3015353320       56.4739499355       28.4180659285  MEMB      126             0.0000000000
     16696       132  POPC      H15C           65.0842553791       57.0621693234       26.7998657031  MEMB      126             0.0000000000
     16697       132  POPC      C11            63.7046050843       55.8579081063       24.6539001028  MEMB      126             0.0000000000
     16698       132  POPC      H11A           62.6341374376       56.0649020892       24.8864689858  MEMB      126             0.0000000000
     16699       132  POPC      H11B           63.7350686215       55.4389326576       23.6212228622  MEMB      126             0.0000000000
     16700       132  POPC      P              64.0424504343       58.4673517581       24.9970120363  MEMB      126             0.0000000000
     16701       132  POPC      O13            63.5465340754       59.0902428560       23.7463496217  MEMB      126             0.0000000000
     16702       132  POPC      O14            65.1171051624       59.1601931206       25.7581224693  MEMB      126             0.0000000000
     16703       132  POPC      O12            64.5381838744       57.0032440432       24.7050211194  MEMB      126             0.0000000000
     16704       132  POPC      O11            62.7934191275       58.2794316570       25.9656573581  MEMB      126             0.0000000000
     16705       132  POPC      C1             62.0894566179       59.4815157816       26.3533393575  MEMB      126             0.0000000000
     16706       132  POPC      HA             61.0296388921       59.3878538876       26.0276526582  MEMB      126             0.0000000000
     16707       132  POPC      HB             62.4730708808       60.4225502135       25.8805776566  MEMB      126             0.0000000000
     16708       132  POPC      C2             62.0856480641       59.6857909999       27.8944759887  MEMB      126             0.0000000000
     16709       132  POPC      HS             61.5020797423       60.6101256919       28.1285281105  MEMB      126             0.0000000000
     16710       132  POPC      O21            63.4128635300       59.7665327415       28.4294991377  MEMB      126             0.0000000000
     16711       132  POPC      C21            64.0531445740       60.8981039519       28.2752105200  MEMB      126             0.0000000000
     16712       132  POPC      O22            63.6519516482       61.9026111917       27.7208188391  MEMB      126             0.0000000000
     16713       132  POPC      C22            65.3002862236       60.8369264087       29.1204253261  MEMB      126             0.0000000000
     16714       132  POPC      H2R            65.9872569850       61.6478088727       28.8170563497  MEMB      126             0.0000000000
     16715       132  POPC      H2S            65.7836724140       59.8498514016       28.9677552723  MEMB      126             0.0000000000
     16716       132  POPC      C3             61.3681335023       58.4970503186       28.5832807171  MEMB      126             0.0000000000
     16717       132  POPC      HX             62.1291946061       57.7471357635       28.8960130083  MEMB      126             0.0000000000
     16718       132  POPC      HY             60.7350230998       57.9880774547       27.8270967723  MEMB      126             0.0000000000
     16719       132  POPC      O31            60.5174541932       58.9378001420       29.6594735409  MEMB      126             0.0000000000
     16720       132  POPC      C31            61.0262193718       58.7856133544       30.8873071925  MEMB      126             0.0000000000
     16721       132  POPC      O32            62.1316316064       58.3486106588       31.1378637802  MEMB      126             0.0000000000
     16722       132  POPC      C32            60.0085192811       59.2003495115       31.9617677399  MEMB      126             0.0000000000
     16723       132  POPC      H2X            59.0344286543       58.7222601321       31.7407909954  MEMB      126             0.0000000000
     16724       132  POPC      H2Y            59.8860808212       60.2994650419       31.8986065755  MEMB      126             0.0000000000
     16725       132  POPC      C23            64.8228491512       61.0214250345       30.5686996292  MEMB      126             0.0000000000
     16726       132  POPC      H3R            63.9995440098       60.3033506620       30.7903947275  MEMB      126             0.0000000000
     16727       132  POPC      H3S            64.3997138669       62.0451137488       30.6819187457  MEMB      126             0.0000000000
     16728       132  POPC      C24            65.9324283457       60.8109579341       31.5853731429  MEMB      126             0.0000000000
     16729       132  POPC      H4R            65.6521794583       61.2996998075       32.5463924972  MEMB      126             0.0000000000
     16730       132  POPC      H4S            66.8350787956       61.3129313717       31.2053203647  MEMB      126             0.0000000000
     16731       132  POPC      C25            66.2183619645       59.3409576141       31.8953309174  MEMB      126             0.0000000000
     16732       132  POPC      H5R            67.2012013929       59.2626265317       32.4148598913  MEMB      126             0.0000000000
     16733       132  POPC      H5S            66.2696216830       58.7430028578       30.9592480721  MEMB      126             0.0000000000
     16734       132  POPC      C26            65.1421695883       58.7835969218       32.8261853125  MEMB      126             0.0000000000
     16735       132  POPC      H6R            64.1559530199       58.8601788586       32.3204203493  MEMB      126             0.0000000000
     16736       132  POPC      H6S            65.0914269566       59.4043122534       33.7490731511  MEMB      126             0.0000000000
     16737       132  POPC      C27            65.3481176378       57.3228528242       33.2246304725  MEMB      126             0.0000000000
     16738       132  POPC      H7R            66.1987495384       57.2481815843       33.9366670737  MEMB      126             0.0000000000
     16739       132  POPC      H7S            65.5993039018       56.7311124776       32.3160396733  MEMB      126             0.0000000000
     16740       132  POPC      C28            64.0547860861       56.7835437937       33.8491471495  MEMB      126             0.0000000000
     16741       132  POPC      H8R            63.2621494233       56.8016058170       33.0656581320  MEMB      126             0.0000000000
     16742       132  POPC      H8S            63.7259886048       57.5086682147       34.6279413881  MEMB      126             0.0000000000
     16743       132  POPC      C29            64.2013674731       55.3906792678       34.3975715227  MEMB      126             0.0000000000
     16744       132  POPC      H91            64.3289756225       54.6007003230       33.6400717753  MEMB      126             0.0000000000
     16745       132  POPC      C210           64.2114979861       55.0705730819       35.7037715546  MEMB      126             0.0000000000
     16746       132  POPC      H101           64.2713456321       54.0108464107       35.9892945298  MEMB      126             0.0000000000
     16747       132  POPC      C211           64.0790639385       56.0561721028       36.8385362174  MEMB      126             0.0000000000
     16748       132  POPC      H11R           64.5801622885       57.0175756222       36.5806621483  MEMB      126             0.0000000000
     16749       132  POPC      H11S           64.5777800158       55.6826746623       37.7600501457  MEMB      126             0.0000000000
     16750       132  POPC      C212           62.6016179303       56.3568768902       37.1372117181  MEMB      126             0.0000000000
     16751       132  POPC      H12R           62.0457836649       56.4871099419       36.1799413029  MEMB      126             0.0000000000
     16752       132  POPC      H12S           62.5223637785       57.3246259788       37.6779235420  MEMB      126             0.0000000000
     16753       132  POPC      C213           61.9112979000       55.2741051002       37.9784949043  MEMB      126             0.0000000000
     16754       132  POPC      H13R           62.2335212259       54.2607662907       37.6598894351  MEMB      126             0.0000000000
     16755       132  POPC      H13S           60.8188365054       55.3565129085       37.7828737835  MEMB      126             0.0000000000
     16756       132  POPC      C214           62.1314113985       55.4615863014       39.4881078260  MEMB      126             0.0000000000
     16757       132  POPC      H14R           61.9149814063       56.5264445301       39.7225762262  MEMB      126             0.0000000000
     16758       132  POPC      H14S           63.1927097374       55.2655400921       39.7543139569  MEMB      126             0.0000000000
     16759       132  POPC      C215           61.1962940209       54.5712347996       40.3192744121  MEMB      126             0.0000000000
     16760       132  POPC      H15R           61.4733319212       53.5053840205       40.1577320688  MEMB      126             0.0000000000
     16761       132  POPC      H15S           60.1669940138       54.7030365910       39.9268495474  MEMB      126             0.0000000000
     16762       132  POPC      C216           61.1806872038       54.8770174848       41.8281773149  MEMB      126             0.0000000000
     16763       132  POPC      H16R           62.1954377102       54.7081524270       42.2457608962  MEMB      126             0.0000000000
     16764       132  POPC      H16S           60.4894640941       54.1581194768       42.3253967027  MEMB      126             0.0000000000
     16765       132  POPC      C217           60.7430625245       56.3046981676       42.1925016862  MEMB      126             0.0000000000
     16766       132  POPC      H17R           59.7590131316       56.5171462371       41.7235287189  MEMB      126             0.0000000000
     16767       132  POPC      H17S           61.4755028378       57.0288181733       41.7713022897  MEMB      126             0.0000000000
     16768       132  POPC      C218           60.6355332260       56.5367391056       43.7019054220  MEMB      126             0.0000000000
     16769       132  POPC      H18R           61.6131948444       56.3344318222       44.1895535040  MEMB      126             0.0000000000
     16770       132  POPC      H18S           59.8746785191       55.8601357548       44.1477581557  MEMB      126             0.0000000000
     16771       132  POPC      H18T           60.3480410330       57.5879558684       43.9175324608  MEMB      126             0.0000000000
     16772       132  POPC      C33            60.5032677813       58.7931532183       33.3787810860  MEMB      126             0.0000000000
     16773       132  POPC      H3X            61.5560898201       59.1367918623       33.4969504680  MEMB      126             0.0000000000
     16774       132  POPC      H3Y            60.5341055882       57.6836824180       33.4601975041  MEMB      126             0.0000000000
     16775       132  POPC      C34            59.6886626537       59.3629449074       34.5576295106  MEMB      126             0.0000000000
     16776       132  POPC      H4X            58.6647764889       58.9385159250       34.5339330244  MEMB      126             0.0000000000
     16777       132  POPC      H4Y            59.5919766939       60.4632714455       34.4368285383  MEMB      126             0.0000000000
     16778       132  POPC      C35            60.3396877895       59.0381363988       35.9211018091  MEMB      126             0.0000000000
     16779       132  POPC      H5X            61.4282282479       59.2443251157       35.8568313347  MEMB      126             0.0000000000
     16780       132  POPC      H5Y            60.2468078322       57.9496175297       36.1223866790  MEMB      126             0.0000000000
     16781       132  POPC      C36            59.7631966882       59.8197151077       37.1171586195  MEMB      126             0.0000000000
     16782       132  POPC      H6X            58.6779182120       59.5839469550       37.1973593146  MEMB      126             0.0000000000
     16783       132  POPC      H6Y            59.8608388590       60.9120820843       36.9274038458  MEMB      126             0.0000000000
     16784       132  POPC      C37            60.4415723599       59.4802359155       38.4630256366  MEMB      126             0.0000000000
     16785       132  POPC      H7X            60.4141181916       58.3764168113       38.6087441596  MEMB      126             0.0000000000
     16786       132  POPC      H7Y            59.8564260259       59.9413135755       39.2908597571  MEMB      126             0.0000000000
     16787       132  POPC      C38            61.8989699471       59.9662239058       38.5672210495  MEMB      126             0.0000000000
     16788       132  POPC      H8X            61.9346813012       61.0748283040       38.4877733577  MEMB      126             0.0000000000
     16789       132  POPC      H8Y            62.4704272870       59.5599481466       37.7031113985  MEMB      126             0.0000000000
     16790       132  POPC      C39            62.6240821011       59.5323176431       39.8554808265  MEMB      126             0.0000000000
     16791       132  POPC      H9X            62.1132857418       58.6485367206       40.2918046034  MEMB      126             0.0000000000
     16792       132  POPC      H9Y            62.5635826402       60.3484752808       40.6089147337  MEMB      126             0.0000000000
     16793       132  POPC      C310           64.0971439609       59.1664839386       39.5946433833  MEMB      126             0.0000000000
     16794       132  POPC      H10X           64.5455725022       59.9426997096       38.9406605006  MEMB      126             0.0000000000
     16795       132  POPC      H10Y           64.1415807359       58.2082328364       39.0324969708  MEMB      126             0.0000000000
     16796       132  POPC      C311           64.9682771381       59.0582142149       40.8563571197  MEMB      126             0.0000000000
     16797       132  POPC      H11X           64.9135949178       60.0141226518       41.4233317558  MEMB      126             0.0000000000
     16798       132  POPC      H11Y           66.0271044266       58.9189764591       40.5377115589  MEMB      126             0.0000000000
     16799       132  POPC      C312           64.5818996119       57.8879015867       41.7706600505  MEMB      126             0.0000000000
     16800       132  POPC      H12X           64.5067247109       56.9598472811       41.1596773451  MEMB      126             0.0000000000
     16801       132  POPC      H12Y           63.5740025003       58.0760057152       42.2003421918  MEMB      126             0.0000000000
     16802       132  POPC      C313           65.5924723757       57.6396954582       42.9054259393  MEMB      126             0.0000000000
     16803       132  POPC      H13X           66.5669695407       57.3384676204       42.4595117119  MEMB      126             0.0000000000
     16804       132  POPC      H13Y           65.2319657352       56.7857344855       43.5198910923  MEMB      126             0.0000000000
     16805       132  POPC      C314           65.8354306354       58.8383510556       43.8388232883  MEMB      126             0.0000000000
     16806       132  POPC      H14X           66.3868146861       59.6275831536       43.2794375450  MEMB      126             0.0000000000
     16807       132  POPC      H14Y           66.4949213738       58.5058427090       44.6732843637  MEMB      126             0.0000000000
     16808       132  POPC      C315           64.5581809532       59.4550459649       44.4340391549  MEMB      126             0.0000000000
     16809       132  POPC      H15X           63.9666627251       59.9235204365       43.6145920853  MEMB      126             0.0000000000
     16810       132  POPC      H15Y           64.8677853777       60.2704554130       45.1226240097  MEMB      126             0.0000000000
     16811       132  POPC      C316           63.6657157682       58.4816985802       45.2097635685  MEMB      126             0.0000000000
     16812       132  POPC      H16X           62.7181519720       58.9782574108       45.5053450215  MEMB      126             0.0000000000
     16813       132  POPC      H16Y           64.1836350205       58.1330307368       46.1275018935  MEMB      126             0.0000000000
     16814       132  POPC      H16Z           63.4086742170       57.5991090838       44.5890162187  MEMB      126             0.0000000000
     16815       133  POPC      N               2.8570057599       59.6136357925       25.7881511114  MEMB      127             0.0000000000
     16816       133  POPC      C12             3.9820258109       59.0424970139       24.9275765911  MEMB      127             0.0000000000
     16817       133  POPC      H12A            3.8398914982       59.3867889856       23.9074854441  MEMB      127             0.0000000000
     16818       133  POPC      H12B            3.8866514899       57.9700949401       24.9054014370  MEMB      127             0.0000000000
     16819       133  POPC      C13             3.1924574431       61.0664659604       26.0065565834  MEMB      127             0.0000000000
     16820       133  POPC      H13A            3.2320670972       61.6187733427       25.0704583809  MEMB      127             0.0000000000
     16821       133  POPC      H13B            2.5481919718       61.5452870232       26.7151367904  MEMB      127             0.0000000000
     16822       133  POPC      H13C            4.2130021806       61.1417572618       26.4018990765  MEMB      127             0.0000000000
     16823       133  POPC      C14             1.5665743348       59.4663018200       25.0689989398  MEMB      127             0.0000000000
     16824       133  POPC      H14A            1.3550368702       58.4273508586       24.8274407525  MEMB      127             0.0000000000
     16825       133  POPC      H14B            0.7120591641       59.7736833197       25.6819740790  MEMB      127             0.0000000000
     16826       133  POPC      H14C            1.5147848808       60.0576417354       24.1623388605  MEMB      127             0.0000000000
     16827       133  POPC      C15             2.8113514795       58.9192582926       27.1198224888  MEMB      127             0.0000000000
     16828       133  POPC      H15A            3.7536334855       59.1315613480       27.6404188506  MEMB      127             0.0000000000
     16829       133  POPC      H15B            2.7594135729       57.8470778595       27.0257208612  MEMB      127             0.0000000000
     16830       133  POPC      H15C            1.9966279166       59.2778413183       27.7332329402  MEMB      127             0.0000000000
     16831       133  POPC      C11             5.4450964409       59.3944415315       25.3140110059  MEMB      127             0.0000000000
     16832       133  POPC      H11A            5.6563868677       60.4190467132       24.9284639757  MEMB      127             0.0000000000
     16833       133  POPC      H11B            6.1434280814       58.6954491455       24.7967920551  MEMB      127             0.0000000000
     16834       133  POPC      P               6.8065800098       60.1777859209       27.3895225880  MEMB      127             0.0000000000
     16835       133  POPC      O13             8.1045660797       59.7825824030       26.7899160947  MEMB      127             0.0000000000
     16836       133  POPC      O14             6.6210728518       60.0475164134       28.8486301319  MEMB      127             0.0000000000
     16837       133  POPC      O12             5.6518175361       59.3126032618       26.7210650430  MEMB      127             0.0000000000
     16838       133  POPC      O11             6.4442873455       61.6583801056       26.9085632360  MEMB      127             0.0000000000
     16839       133  POPC      C1              7.4963372697       62.5801014988       26.5674965389  MEMB      127             0.0000000000
     16840       133  POPC      HA              7.1222163111       63.2737714113       25.7836236259  MEMB      127             0.0000000000
     16841       133  POPC      HB              8.3885387412       62.0722730372       26.1306450667  MEMB      127             0.0000000000
     16842       133  POPC      C2              7.9836196716       63.4508799324       27.7649209916  MEMB      127             0.0000000000
     16843       133  POPC      HS              8.9187367439       63.9689244328       27.4475917734  MEMB      127             0.0000000000
     16844       133  POPC      O21             8.2402260858       62.5897340249       28.8840315104  MEMB      127             0.0000000000
     16845       133  POPC      C21             8.8937735186       63.0542528407       29.9225805235  MEMB      127             0.0000000000
     16846       133  POPC      O22             9.4553140703       64.1352974747       29.9871855492  MEMB      127             0.0000000000
     16847       133  POPC      C22             8.8001517563       62.0047793641       31.0398609818  MEMB      127             0.0000000000
     16848       133  POPC      H2R             9.7725269105       61.4912282281       31.1033231358  MEMB      127             0.0000000000
     16849       133  POPC      H2S             8.0427912772       61.2426331992       30.7489494680  MEMB      127             0.0000000000
     16850       133  POPC      C3              6.9124703444       64.5390040258       28.1016829842  MEMB      127             0.0000000000
     16851       133  POPC      HX              6.6425220909       65.0426774362       27.1478836056  MEMB      127             0.0000000000
     16852       133  POPC      HY              7.3706411760       65.3346599545       28.7350489551  MEMB      127             0.0000000000
     16853       133  POPC      O31             5.7138061678       63.9436291470       28.6703759654  MEMB      127             0.0000000000
     16854       133  POPC      C31             5.8385568778       63.7803330759       29.9828156749  MEMB      127             0.0000000000
     16855       133  POPC      O32             6.5754204120       64.4509857268       30.6768073817  MEMB      127             0.0000000000
     16856       133  POPC      C32             4.9822498940       62.6513222608       30.5473769069  MEMB      127             0.0000000000
     16857       133  POPC      H2X             4.5418604473       63.0255150905       31.4953893048  MEMB      127             0.0000000000
     16858       133  POPC      H2Y             5.6977427764       61.8328045277       30.7840415566  MEMB      127             0.0000000000
     16859       133  POPC      C23             8.4160938351       62.5944028018       32.4140625351  MEMB      127             0.0000000000
     16860       133  POPC      H3R             7.3837923297       62.9995586625       32.3520217368  MEMB      127             0.0000000000
     16861       133  POPC      H3S             9.0725610430       63.4428182735       32.6991168811  MEMB      127             0.0000000000
     16862       133  POPC      C24             8.4249821964       61.5372630995       33.5242734538  MEMB      127             0.0000000000
     16863       133  POPC      H4R             9.3850572262       61.5690118104       34.0825978052  MEMB      127             0.0000000000
     16864       133  POPC      H4S             8.3603224759       60.5310695523       33.0495817520  MEMB      127             0.0000000000
     16865       133  POPC      C25             7.2216978438       61.6807794824       34.4635092031  MEMB      127             0.0000000000
     16866       133  POPC      H5R             7.1488238710       60.7715029957       35.0961045127  MEMB      127             0.0000000000
     16867       133  POPC      H5S             6.3059880856       61.7144800627       33.8277509871  MEMB      127             0.0000000000
     16868       133  POPC      C26             7.2498244972       62.9274212698       35.3591877656  MEMB      127             0.0000000000
     16869       133  POPC      H6R             6.2539406951       63.0412421012       35.8423929112  MEMB      127             0.0000000000
     16870       133  POPC      H6S             7.4248580631       63.8304317673       34.7317039262  MEMB      127             0.0000000000
     16871       133  POPC      C27             8.3226520501       62.8743267698       36.4576800615  MEMB      127             0.0000000000
     16872       133  POPC      H7R             8.4193343858       63.8846123237       36.9159300696  MEMB      127             0.0000000000
     16873       133  POPC      H7S             9.3037009162       62.6426530757       35.9843259704  MEMB      127             0.0000000000
     16874       133  POPC      C28             8.0510121615       61.8369420069       37.5680461316  MEMB      127             0.0000000000
     16875       133  POPC      H8R             9.0257285242       61.6596352571       38.0754260302  MEMB      127             0.0000000000
     16876       133  POPC      H8S             7.7641001745       60.8626206730       37.1209824548  MEMB      127             0.0000000000
     16877       133  POPC      C29             6.9886765438       62.3059714578       38.5335473319  MEMB      127             0.0000000000
     16878       133  POPC      H91             5.9498042844       62.2070814181       38.1818065186  MEMB      127             0.0000000000
     16879       133  POPC      C210            7.2089041497       62.7864333128       39.7692075948  MEMB      127             0.0000000000
     16880       133  POPC      H101            6.3516346255       63.1197330870       40.3724636570  MEMB      127             0.0000000000
     16881       133  POPC      C211            8.5610304844       62.9395633562       40.4137644146  MEMB      127             0.0000000000
     16882       133  POPC      H11R            9.2307679636       62.1186752290       40.0794172887  MEMB      127             0.0000000000
     16883       133  POPC      H11S            8.4780155700       62.8096134015       41.5131338703  MEMB      127             0.0000000000
     16884       133  POPC      C212            9.2795564055       64.2641287588       40.0807530947  MEMB      127             0.0000000000
     16885       133  POPC      H12R            9.2865552464       64.4157294555       38.9783518228  MEMB      127             0.0000000000
     16886       133  POPC      H12S           10.3413051852       64.1659519584       40.4055789936  MEMB      127             0.0000000000
     16887       133  POPC      C213            8.6910382366       65.5073521067       40.7632669744  MEMB      127             0.0000000000
     16888       133  POPC      H13R            7.6175620983       65.6101008460       40.4887703261  MEMB      127             0.0000000000
     16889       133  POPC      H13S            9.2270934235       66.4076386632       40.3864511753  MEMB      127             0.0000000000
     16890       133  POPC      C214            8.8380347623       65.4508322161       42.2877999901  MEMB      127             0.0000000000
     16891       133  POPC      H14R            9.9105235168       65.3295369960       42.5567119296  MEMB      127             0.0000000000
     16892       133  POPC      H14S            8.2946828916       64.5583667019       42.6677805696  MEMB      127             0.0000000000
     16893       133  POPC      C215            8.2751547798       66.6734799901       43.0144766311  MEMB      127             0.0000000000
     16894       133  POPC      H15R            7.2638516765       66.8938014488       42.6183811984  MEMB      127             0.0000000000
     16895       133  POPC      H15S            8.9181401694       67.5583792998       42.8122880815  MEMB      127             0.0000000000
     16896       133  POPC      C216            8.1755502340       66.4291185199       44.5250494401  MEMB      127             0.0000000000
     16897       133  POPC      H16R            9.1722023219       66.1100581934       44.8913447497  MEMB      127             0.0000000000
     16898       133  POPC      H16S            7.4817769181       65.5870601489       44.7243262287  MEMB      127             0.0000000000
     16899       133  POPC      C217            7.7363328468       67.6585969783       45.3209996579  MEMB      127             0.0000000000
     16900       133  POPC      H17R            6.7202586639       67.9580316599       44.9951569325  MEMB      127             0.0000000000
     16901       133  POPC      H17S            8.4081274926       68.5042780586       45.0611211236  MEMB      127             0.0000000000
     16902       133  POPC      C218            7.7595271220       67.4306706697       46.8350442100  MEMB      127             0.0000000000
     16903       133  POPC      H18R            7.1156820676       66.5680445517       47.1074444469  MEMB      127             0.0000000000
     16904       133  POPC      H18S            7.3963905254       68.3316716080       47.3734567591  MEMB      127             0.0000000000
     16905       133  POPC      H18T            8.7927784565       67.2093915109       47.1788630003  MEMB      127             0.0000000000
     16906       133  POPC      C33             3.8910345842       62.0762548398       29.6240211729  MEMB      127             0.0000000000
     16907       133  POPC      H3X             4.3721337357       61.5544393369       28.7661018802  MEMB      127             0.0000000000
     16908       133  POPC      H3Y             3.2907998143       62.9186838906       29.2160839804  MEMB      127             0.0000000000
     16909       133  POPC      C34             2.9499270714       61.1101358313       30.3636924941  MEMB      127             0.0000000000
     16910       133  POPC      H4X             2.1053137368       60.8731147241       29.6789285416  MEMB      127             0.0000000000
     16911       133  POPC      H4Y             2.5467277260       61.6365229397       31.2558156112  MEMB      127             0.0000000000
     16912       133  POPC      C35             3.5620373593       59.7731569684       30.8395311912  MEMB      127             0.0000000000
     16913       133  POPC      H5X             4.2592921822       59.3706725592       30.0699034053  MEMB      127             0.0000000000
     16914       133  POPC      H5Y             2.7323660604       59.0390041583       30.9614106705  MEMB      127             0.0000000000
     16915       133  POPC      C36             4.2845578245       59.8609006520       32.1969709664  MEMB      127             0.0000000000
     16916       133  POPC      H6X             3.8267923866       60.6666837492       32.8109922357  MEMB      127             0.0000000000
     16917       133  POPC      H6Y             5.3463350255       60.1393638244       32.0106967640  MEMB      127             0.0000000000
     16918       133  POPC      C37             4.2628628452       58.5537794922       33.0069972455  MEMB      127             0.0000000000
     16919       133  POPC      H7X             4.6553456043       57.7371069913       32.3590000312  MEMB      127             0.0000000000
     16920       133  POPC      H7Y             3.2194216771       58.2893021325       33.2798673359  MEMB      127             0.0000000000
     16921       133  POPC      C38             5.1391576334       58.6215868799       34.2706610520  MEMB      127             0.0000000000
     16922       133  POPC      H8X             6.1713263673       58.8980841912       33.9529968092  MEMB      127             0.0000000000
     16923       133  POPC      H8Y             5.1957009430       57.6148796558       34.7373782322  MEMB      127             0.0000000000
     16924       133  POPC      C39             4.6712626674       59.6148013423       35.3496467334  MEMB      127             0.0000000000
     16925       133  POPC      H9X             4.6654367685       60.6505842279       34.9509067107  MEMB      127             0.0000000000
     16926       133  POPC      H9Y             5.4224504809       59.5809437351       36.1710165829  MEMB      127             0.0000000000
     16927       133  POPC      C310            3.2849531061       59.3041050195       35.9255003817  MEMB      127             0.0000000000
     16928       133  POPC      H10X            3.2173058311       58.2147337490       36.1296206577  MEMB      127             0.0000000000
     16929       133  POPC      H10Y            2.5138607867       59.5511887760       35.1623026039  MEMB      127             0.0000000000
     16930       133  POPC      C311            2.9829257134       60.0611909789       37.2285580798  MEMB      127             0.0000000000
     16931       133  POPC      H11X            1.9083087067       59.9023430480       37.4773788697  MEMB      127             0.0000000000
     16932       133  POPC      H11Y            3.1426507444       61.1525341684       37.0839596894  MEMB      127             0.0000000000
     16933       133  POPC      C312            3.8263525036       59.5627801940       38.4141508978  MEMB      127             0.0000000000
     16934       133  POPC      H12X            4.8916172122       59.8527013643       38.2826958854  MEMB      127             0.0000000000
     16935       133  POPC      H12Y            3.7839684348       58.4492720033       38.4238348528  MEMB      127             0.0000000000
     16936       133  POPC      C313            3.3250635412       60.0736126101       39.7714869563  MEMB      127             0.0000000000
     16937       133  POPC      H13X            2.2259605653       59.9015469452       39.8253435363  MEMB      127             0.0000000000
     16938       133  POPC      H13Y            3.5039807088       61.1677196245       39.8528413893  MEMB      127             0.0000000000
     16939       133  POPC      C314            3.9816447447       59.3410640032       40.9523228783  MEMB      127             0.0000000000
     16940       133  POPC      H14X            5.0480679486       59.6461043372       41.0382915622  MEMB      127             0.0000000000
     16941       133  POPC      H14Y            3.9636576685       58.2469034107       40.7388855833  MEMB      127             0.0000000000
     16942       133  POPC      C315            3.2549967323       59.5665529609       42.2866602750  MEMB      127             0.0000000000
     16943       133  POPC      H15X            3.6724713475       58.8613864923       43.0421678726  MEMB      127             0.0000000000
     16944       133  POPC      H15Y            2.1799304290       59.3069057959       42.1526563290  MEMB      127             0.0000000000
     16945       133  POPC      C316            3.3643703079       60.9898333966       42.8355374504  MEMB      127             0.0000000000
     16946       133  POPC      H16X            4.4221452187       61.2336260518       43.0708375379  MEMB      127             0.0000000000
     16947       133  POPC      H16Y            2.7646924276       61.0865522009       43.7647090352  MEMB      127             0.0000000000
     16948       133  POPC      H16Z            2.9863107074       61.7319264115       42.1014863822  MEMB      127             0.0000000000
     16949       134  POPC      N               7.2131678825        2.6221056179       25.3375173419  MEMB      128             0.0000000000
     16950       134  POPC      C12             6.6594328383        3.3569532131       26.5390433680  MEMB      128             0.0000000000
     16951       134  POPC      H12A            5.8100643821        3.9487806870       26.1887401840  MEMB      128             0.0000000000
     16952       134  POPC      H12B            7.3899286024        4.0607304602       26.9175226759  MEMB      128             0.0000000000
     16953       134  POPC      C13             6.0811017781        2.2680291491       24.4301314997  MEMB      128             0.0000000000
     16954       134  POPC      H13A            5.6160637851        3.1398356009       23.9974561455  MEMB      128             0.0000000000
     16955       134  POPC      H13B            6.4277550221        1.6112471416       23.6401538463  MEMB      128             0.0000000000
     16956       134  POPC      H13C            5.3176606921        1.7320571290       24.9914740048  MEMB      128             0.0000000000
     16957       134  POPC      C14             8.1849778207        3.4664230525       24.5759379812  MEMB      128             0.0000000000
     16958       134  POPC      H14A            7.7106210095        4.3406811748       24.1430256949  MEMB      128             0.0000000000
     16959       134  POPC      H14B            9.0092717898        3.7843782645       25.1979209880  MEMB      128             0.0000000000
     16960       134  POPC      H14C            8.5881657793        2.8714337300       23.7553851304  MEMB      128             0.0000000000
     16961       134  POPC      C15             7.8880215254        1.3275730137       25.6766085763  MEMB      128             0.0000000000
     16962       134  POPC      H15A            8.6944282951        1.4621420276       26.3785495345  MEMB      128             0.0000000000
     16963       134  POPC      H15B            8.2624672118        0.8687920615       24.7613216332  MEMB      128             0.0000000000
     16964       134  POPC      H15C            7.1712368842        0.6415685166       26.1225350193  MEMB      128             0.0000000000
     16965       134  POPC      C11             6.1726563573        2.4890350813       27.7196935210  MEMB      128             0.0000000000
     16966       134  POPC      H11A            5.7048018942        3.1395411838       28.4977062125  MEMB      128             0.0000000000
     16967       134  POPC      H11B            7.0438403089        2.0047150173       28.2165992504  MEMB      128             0.0000000000
     16968       134  POPC      P               3.7342884159        1.7341376205       27.0949862851  MEMB      128             0.0000000000
     16969       134  POPC      O13             3.2213378637        0.5715911293       26.3330290868  MEMB      128             0.0000000000
     16970       134  POPC      O14             3.5370976483        3.0878759868       26.5200327200  MEMB      128             0.0000000000
     16971       134  POPC      O12             5.2885171689        1.4692645699       27.2741880179  MEMB      128             0.0000000000
     16972       134  POPC      O11             3.2197449290        1.6402244046       28.5865759445  MEMB      128             0.0000000000
     16973       134  POPC      C1              3.9799373612        0.8311305841       29.4949504169  MEMB      128             0.0000000000
     16974       134  POPC      HA              4.9831311557        1.2920697916       29.6666202464  MEMB      128             0.0000000000
     16975       134  POPC      HB              4.1398126529       -0.1950503999       29.0902032926  MEMB      128             0.0000000000
     16976       134  POPC      C2              3.3665172606        0.7097648042       30.9150938689  MEMB      128             0.0000000000
     16977       134  POPC      HS              2.5950863915       -0.0887615152       30.9233887419  MEMB      128             0.0000000000
     16978       134  POPC      O21             2.8284866117        1.9442632956       31.3585139346  MEMB      128             0.0000000000
     16979       134  POPC      C21             1.5939167558        2.2666563039       31.0512912119  MEMB      128             0.0000000000
     16980       134  POPC      O22             0.9086208227        1.8428460508       30.1396787401  MEMB      128             0.0000000000
     16981       134  POPC      C22             1.1129953195        3.1332597298       32.2243088376  MEMB      128             0.0000000000
     16982       134  POPC      H2R             0.1395625716        2.7323339533       32.5680993807  MEMB      128             0.0000000000
     16983       134  POPC      H2S             0.9425830155        4.1508973448       31.8589202264  MEMB      128             0.0000000000
     16984       134  POPC      C3              4.5073388063        0.3288723377       31.9084074278  MEMB      128             0.0000000000
     16985       134  POPC      HX              5.2332827866        1.1784922467       31.8588014613  MEMB      128             0.0000000000
     16986       134  POPC      HY              4.9887005933       -0.5567108281       31.4855521957  MEMB      128             0.0000000000
     16987       134  POPC      O31             4.0987097387       -0.0080156415       33.2585048460  MEMB      128             0.0000000000
     16988       134  POPC      C31             5.0986146726        0.1390040253       34.1439055158  MEMB      128             0.0000000000
     16989       134  POPC      O32             6.1486560627        0.7036298822       33.9172189486  MEMB      128             0.0000000000
     16990       134  POPC      C32             4.7599552883       -0.5680211996       35.4496132763  MEMB      128             0.0000000000
     16991       134  POPC      H2X             5.6881266841       -1.0580439876       35.8080573012  MEMB      128             0.0000000000
     16992       134  POPC      H2Y             3.9940312259       -1.3438155999       35.2562429717  MEMB      128             0.0000000000
     16993       134  POPC      C23             2.1252245924        3.2520806798       33.4002297890  MEMB      128             0.0000000000
     16994       134  POPC      H3R             3.1063379837        3.5912637717       32.9940642663  MEMB      128             0.0000000000
     16995       134  POPC      H3S             2.3100862007        2.2616162219       33.8641849022  MEMB      128             0.0000000000
     16996       134  POPC      C24             1.6886195197        4.2595516643       34.4686778208  MEMB      128             0.0000000000
     16997       134  POPC      H4R             1.7286799220        3.7908810961       35.4761133048  MEMB      128             0.0000000000
     16998       134  POPC      H4S             0.6296940725        4.5455117398       34.2717830563  MEMB      128             0.0000000000
     16999       134  POPC      C25             2.5808276483        5.5052566023       34.4668115338  MEMB      128             0.0000000000
     17000       134  POPC      H5R             2.1079017375        6.3160235441       35.0640981216  MEMB      128             0.0000000000
     17001       134  POPC      H5S             2.6474871633        5.8608723226       33.4145105474  MEMB      128             0.0000000000
     17002       134  POPC      C26             3.9955367210        5.2468665900       35.0165266217  MEMB      128             0.0000000000
     17003       134  POPC      H6R             4.4376397055        4.3439027964       34.5413674654  MEMB      128             0.0000000000
     17004       134  POPC      H6S             3.9270243738        5.0464193921       36.1076473758  MEMB      128             0.0000000000
     17005       134  POPC      C27             4.9358765539        6.4305854937       34.7478971153  MEMB      128             0.0000000000
     17006       134  POPC      H7R             4.5053402187        7.3388859585       35.2190120697  MEMB      128             0.0000000000
     17007       134  POPC      H7S             4.9506312877        6.5821728192       33.6449230774  MEMB      128             0.0000000000
     17008       134  POPC      C28             6.3994882229        6.2388270897       35.1878631687  MEMB      128             0.0000000000
     17009       134  POPC      H8R             6.9890713700        7.0839834439       34.7661983688  MEMB      128             0.0000000000
     17010       134  POPC      H8S             6.7960184593        5.3225968818       34.6966631109  MEMB      128             0.0000000000
     17011       134  POPC      C29             6.5757301899        6.2112853984       36.6841975943  MEMB      128             0.0000000000
     17012       134  POPC      H91             6.6545681457        7.2042232788       37.1531633129  MEMB      128             0.0000000000
     17013       134  POPC      C210            6.5963080449        5.1129706668       37.4616924623  MEMB      128             0.0000000000
     17014       134  POPC      H101            6.6999568213        5.2280561062       38.5513277982  MEMB      128             0.0000000000
     17015       134  POPC      C211            6.4449883815        3.6879829108       36.9884850654  MEMB      128             0.0000000000
     17016       134  POPC      H11R            6.4661589228        3.6096939475       35.8780938925  MEMB      128             0.0000000000
     17017       134  POPC      H11S            5.4457542477        3.3171578380       37.2970742372  MEMB      128             0.0000000000
     17018       134  POPC      C212            7.5024676758        2.7101821855       37.5361297506  MEMB      128             0.0000000000
     17019       134  POPC      H12R            8.5180017495        3.0149843765       37.2046649262  MEMB      128             0.0000000000
     17020       134  POPC      H12S            7.3016280835        1.7184060690       37.0663894276  MEMB      128             0.0000000000
     17021       134  POPC      C213            7.4484049857        2.5343353267       39.0646711587  MEMB      128             0.0000000000
     17022       134  POPC      H13R            7.4899503853        1.4445339130       39.2917685832  MEMB      128             0.0000000000
     17023       134  POPC      H13S            6.4672713923        2.8957222308       39.4349338175  MEMB      128             0.0000000000
     17024       134  POPC      C214            8.6087716073        3.2148460268       39.8138999220  MEMB      128             0.0000000000
     17025       134  POPC      H14R            9.2758781719        3.7247276886       39.0847576324  MEMB      128             0.0000000000
     17026       134  POPC      H14S            9.2133971238        2.4146113575       40.2986031536  MEMB      128             0.0000000000
     17027       134  POPC      C215            8.2143251661        4.2380224686       40.8964968919  MEMB      128             0.0000000000
     17028       134  POPC      H15R            7.8305204630        5.1640473361       40.4194321660  MEMB      128             0.0000000000
     17029       134  POPC      H15S            9.1311307458        4.5104061514       41.4652933131  MEMB      128             0.0000000000
     17030       134  POPC      C216            7.1559488801        3.7248618483       41.8769066508  MEMB      128             0.0000000000
     17031       134  POPC      H16R            7.2346960281        2.6196942939       41.9392547969  MEMB      128             0.0000000000
     17032       134  POPC      H16S            6.1620746942        3.9690994018       41.4490472965  MEMB      128             0.0000000000
     17033       134  POPC      C217            7.2521831338        4.2958964971       43.2998383518  MEMB      128             0.0000000000
     17034       134  POPC      H17R            8.2877358672        4.1423331369       43.6805748395  MEMB      128             0.0000000000
     17035       134  POPC      H17S            6.5699385772        3.7128652009       43.9613892326  MEMB      128             0.0000000000
     17036       134  POPC      C218            6.8759857902        5.7741368913       43.4013823126  MEMB      128             0.0000000000
     17037       134  POPC      H18R            7.5373074762        6.3811416401       42.7501435571  MEMB      128             0.0000000000
     17038       134  POPC      H18S            6.9875806693        6.1306419117       44.4483069321  MEMB      128             0.0000000000
     17039       134  POPC      H18T            5.8233662742        5.9312965374       43.0811074774  MEMB      128             0.0000000000
     17040       134  POPC      C33             4.2595814403        0.4416789026       36.4943196190  MEMB      128             0.0000000000
     17041       134  POPC      H3X             3.4109709484        1.0155310985       36.0511759126  MEMB      128             0.0000000000
     17042       134  POPC      H3Y             5.0641329991        1.1753255904       36.7205711439  MEMB      128             0.0000000000
     17043       134  POPC      C34             3.7725493508       -0.2111582326       37.7970631816  MEMB      128             0.0000000000
     17044       134  POPC      H4X             4.6591515078       -0.4483673346       38.4276431181  MEMB      128             0.0000000000
     17045       134  POPC      H4Y             3.2532614882       -1.1696676096       37.5719589427  MEMB      128             0.0000000000
     17046       134  POPC      C35             2.8017070539        0.7019019941       38.5668322484  MEMB      128             0.0000000000
     17047       134  POPC      H5X             2.6759970613        0.3156272326       39.6027310233  MEMB      128             0.0000000000
     17048       134  POPC      H5Y             1.8063033611        0.6839659084       38.0718210337  MEMB      128             0.0000000000
     17049       134  POPC      C36             3.3038148225        2.1481039602       38.6052405625  MEMB      128             0.0000000000
     17050       134  POPC      H6X             3.3115709739        2.5966700007       37.5865953811  MEMB      128             0.0000000000
     17051       134  POPC      H6Y             4.3602096294        2.0914249326       38.9576975124  MEMB      128             0.0000000000
     17052       134  POPC      C37             2.5317142264        3.1066057109       39.5189075726  MEMB      128             0.0000000000
     17053       134  POPC      H7X             2.1611539836        2.5395239336       40.3964982343  MEMB      128             0.0000000000
     17054       134  POPC      H7Y             1.6376994610        3.5137880740       38.9984374616  MEMB      128             0.0000000000
     17055       134  POPC      C38             3.4804085635        4.2361631260       39.9495484514  MEMB      128             0.0000000000
     17056       134  POPC      H8X             3.6173185191        4.9466739706       39.1035797097  MEMB      128             0.0000000000
     17057       134  POPC      H8Y             4.4796337918        3.7851202580       40.1448511461  MEMB      128             0.0000000000
     17058       134  POPC      C39             3.1054528810        5.0015401147       41.2206030341  MEMB      128             0.0000000000
     17059       134  POPC      H9X             2.2407524024        5.6719221442       41.0143229481  MEMB      128             0.0000000000
     17060       134  POPC      H9Y             3.9722556687        5.6544579197       41.4790503369  MEMB      128             0.0000000000
     17061       134  POPC      C310            2.7747360598        4.1402069343       42.4522112720  MEMB      128             0.0000000000
     17062       134  POPC      H10X            1.7121865393        3.8140049768       42.3837907619  MEMB      128             0.0000000000
     17063       134  POPC      H10Y            2.8673990346        4.8162107499       43.3287154239  MEMB      128             0.0000000000
     17064       134  POPC      C311            3.6409710526        2.8909672456       42.7116827305  MEMB      128             0.0000000000
     17065       134  POPC      H11X            4.7074265961        3.1099236414       42.5370739070  MEMB      128             0.0000000000
     17066       134  POPC      H11Y            3.3430256606        2.0933975757       42.0026303284  MEMB      128             0.0000000000
     17067       134  POPC      C312            3.4959062415        2.3940819397       44.1576570202  MEMB      128             0.0000000000
     17068       134  POPC      H12X            2.4183768528        2.4541371754       44.4238604289  MEMB      128             0.0000000000
     17069       134  POPC      H12Y            4.0458168039        3.0948734308       44.8249105892  MEMB      128             0.0000000000
     17070       134  POPC      C313            3.9661686382        0.9656557974       44.4822640674  MEMB      128             0.0000000000
     17071       134  POPC      H13X            3.1451645283        0.4597949381       45.0290073764  MEMB      128             0.0000000000
     17072       134  POPC      H13Y            4.8073194581        1.0150985932       45.2039504704  MEMB      128             0.0000000000
     17073       134  POPC      C314            4.3666799698        0.0783632852       43.3010382644  MEMB      128             0.0000000000
     17074       134  POPC      H14X            5.2227428295        0.5456260570       42.7731949125  MEMB      128             0.0000000000
     17075       134  POPC      H14Y            3.5373440648       -0.0089269509       42.5682746352  MEMB      128             0.0000000000
     17076       134  POPC      C315            4.7384616837       -1.3304371126       43.7692049449  MEMB      128             0.0000000000
     17077       134  POPC      H15X            3.8372976643       -1.8024202838       44.2178051825  MEMB      128             0.0000000000
     17078       134  POPC      H15Y            5.4953230822       -1.2506684386       44.5790046175  MEMB      128             0.0000000000
     17079       134  POPC      C316            5.2752752144       -2.2184113884       42.6504156110  MEMB      128             0.0000000000
     17080       134  POPC      H16X            6.1087310523       -1.7082844355       42.1241356599  MEMB      128             0.0000000000
     17081       134  POPC      H16Y            4.4758949069       -2.4414549636       41.9112560211  MEMB      128             0.0000000000
     17082       134  POPC      H16Z            5.6613277893       -3.1751627491       43.0640279481  MEMB      128             0.0000000000
     17083       135  POPC      N               0.2499050107        9.2009493753       25.5584439107  MEMB      129             0.0000000000
     17084       135  POPC      C12            -1.2299518086        8.8673107692       25.6939716612  MEMB      129             0.0000000000
     17085       135  POPC      H12A           -1.4780205480        8.1146213587       24.9383315417  MEMB      129             0.0000000000
     17086       135  POPC      H12B           -1.8007213506        9.7479289827       25.4521649997  MEMB      129             0.0000000000
     17087       135  POPC      C13             1.0381859383        7.9366810940       25.6141146813  MEMB      129             0.0000000000
     17088       135  POPC      H13A            2.1033339358        8.0933596762       25.5360339253  MEMB      129             0.0000000000
     17089       135  POPC      H13B            0.8136867946        7.4134097877       26.5443457253  MEMB      129             0.0000000000
     17090       135  POPC      H13C            0.7544992718        7.2256767316       24.8388816944  MEMB      129             0.0000000000
     17091       135  POPC      C14             0.4637532556        9.8926724487       24.2518290033  MEMB      129             0.0000000000
     17092       135  POPC      H14A            0.0062482901       10.8741191685       24.2471838738  MEMB      129             0.0000000000
     17093       135  POPC      H14B            1.5245736998       10.0106151705       24.0483678854  MEMB      129             0.0000000000
     17094       135  POPC      H14C            0.0329322227        9.3204462713       23.4328103922  MEMB      129             0.0000000000
     17095       135  POPC      C15             0.7401619046       10.0864584131       26.6546039120  MEMB      129             0.0000000000
     17096       135  POPC      H15A            0.5391547947        9.6057550599       27.6023843796  MEMB      129             0.0000000000
     17097       135  POPC      H15B            0.2470731018       11.0473272596       26.6260538448  MEMB      129             0.0000000000
     17098       135  POPC      H15C            1.8109894275       10.2461502651       26.5426017033  MEMB      129             0.0000000000
     17099       135  POPC      C11            -1.7498098871        8.3515397023       27.0552320164  MEMB      129             0.0000000000
     17100       135  POPC      H11A           -2.8447944990        8.1490308766       26.9679763908  MEMB      129             0.0000000000
     17101       135  POPC      H11B           -1.6484233731        9.1529753872       27.8204104647  MEMB      129             0.0000000000
     17102       135  POPC      P              -1.4560744117        5.7472957953       27.0381899679  MEMB      129             0.0000000000
     17103       135  POPC      O13            -1.0212914300        5.6165641123       25.6260556325  MEMB      129             0.0000000000
     17104       135  POPC      O14            -2.8913913668        5.5143923889       27.3231895366  MEMB      129             0.0000000000
     17105       135  POPC      O12            -1.0323636063        7.2058741445       27.4888742772  MEMB      129             0.0000000000
     17106       135  POPC      O11            -0.5106314058        4.8125793044       27.9068116893  MEMB      129             0.0000000000
     17107       135  POPC      C1              0.8813500884        5.1596270149       28.0655031672  MEMB      129             0.0000000000
     17108       135  POPC      HA              1.2769033326        5.7932375309       27.2422908492  MEMB      129             0.0000000000
     17109       135  POPC      HB              1.4746149868        4.2171862658       28.0289758286  MEMB      129             0.0000000000
     17110       135  POPC      C2              1.1704646777        5.8339925357       29.4412512556  MEMB      129             0.0000000000
     17111       135  POPC      HS              1.0833593900        5.0031946893       30.1659432974  MEMB      129             0.0000000000
     17112       135  POPC      O21             0.2618403820        6.9142625561       29.7220060617  MEMB      129             0.0000000000
     17113       135  POPC      C21            -0.6081159903        6.6725100855       30.6934387062  MEMB      129             0.0000000000
     17114       135  POPC      O22            -0.7754020288        5.6128125175       31.2640418372  MEMB      129             0.0000000000
     17115       135  POPC      C22            -1.2774216666        7.9827499062       31.1334840215  MEMB      129             0.0000000000
     17116       135  POPC      H2R            -2.3539093677        7.7704027740       31.2824422206  MEMB      129             0.0000000000
     17117       135  POPC      H2S            -1.1836313047        8.7113087816       30.3032313795  MEMB      129             0.0000000000
     17118       135  POPC      C3              2.5981901656        6.4076867680       29.6409030565  MEMB      129             0.0000000000
     17119       135  POPC      HX              2.8186926355        7.1077038693       28.8017402554  MEMB      129             0.0000000000
     17120       135  POPC      HY              3.3322686939        5.5717303490       29.6218801289  MEMB      129             0.0000000000
     17121       135  POPC      O31             2.6288783474        7.1003097690       30.9110815532  MEMB      129             0.0000000000
     17122       135  POPC      C31             3.7402668910        7.7680261777       31.1839831644  MEMB      129             0.0000000000
     17123       135  POPC      O32             4.7470062410        7.7471067808       30.4976271855  MEMB      129             0.0000000000
     17124       135  POPC      C32             3.4704749914        8.6072423416       32.4357696702  MEMB      129             0.0000000000
     17125       135  POPC      H2X             3.1886549344        7.9050254383       33.2429717640  MEMB      129             0.0000000000
     17126       135  POPC      H2Y             2.5883035967        9.2383901563       32.2062980940  MEMB      129             0.0000000000
     17127       135  POPC      C23            -0.6785777464        8.5670733677       32.4470731097  MEMB      129             0.0000000000
     17128       135  POPC      H3R            -1.0611876278        9.6090443058       32.5506674951  MEMB      129             0.0000000000
     17129       135  POPC      H3S             0.4289815301        8.6109607345       32.3689069888  MEMB      129             0.0000000000
     17130       135  POPC      C24            -1.0837169498        7.7876930550       33.7135314543  MEMB      129             0.0000000000
     17131       135  POPC      H4R            -0.6619490193        6.7592102836       33.6706776234  MEMB      129             0.0000000000
     17132       135  POPC      H4S            -2.1929049669        7.6917212420       33.7213553453  MEMB      129             0.0000000000
     17133       135  POPC      C25            -0.6475029205        8.4428779726       35.0389506690  MEMB      129             0.0000000000
     17134       135  POPC      H5R            -1.0457054401        9.4809505958       35.0618943257  MEMB      129             0.0000000000
     17135       135  POPC      H5S             0.4578503272        8.5114803957       35.0896991638  MEMB      129             0.0000000000
     17136       135  POPC      C26            -1.1622327959        7.7025175961       36.2916713906  MEMB      129             0.0000000000
     17137       135  POPC      H6R            -2.1678020827        7.2837858273       36.0699694672  MEMB      129             0.0000000000
     17138       135  POPC      H6S            -1.2768757933        8.4284582081       37.1274274055  MEMB      129             0.0000000000
     17139       135  POPC      C27            -0.2342634124        6.5681254104       36.7579581783  MEMB      129             0.0000000000
     17140       135  POPC      H7R             0.7791698652        6.9702703311       36.9765115103  MEMB      129             0.0000000000
     17141       135  POPC      H7S            -0.1322842472        5.8637263550       35.9012122096  MEMB      129             0.0000000000
     17142       135  POPC      C28            -0.7583724531        5.7518425613       37.9630925771  MEMB      129             0.0000000000
     17143       135  POPC      H8R            -0.2317713400        4.7719390842       37.9307932600  MEMB      129             0.0000000000
     17144       135  POPC      H8S            -1.8342880696        5.5335863630       37.7883075823  MEMB      129             0.0000000000
     17145       135  POPC      C29            -0.4973714623        6.3541160741       39.3232417879  MEMB      129             0.0000000000
     17146       135  POPC      H91             0.5114311959        6.7790434227       39.4407898173  MEMB      129             0.0000000000
     17147       135  POPC      C210           -1.3258191767        6.3648040385       40.3869870832  MEMB      129             0.0000000000
     17148       135  POPC      H101           -0.9889891826        6.8248607599       41.3259160166  MEMB      129             0.0000000000
     17149       135  POPC      C211           -2.7070017236        5.7755589130       40.4583904654  MEMB      129             0.0000000000
     17150       135  POPC      H11R           -3.1507799010        5.7230059791       39.4430590044  MEMB      129             0.0000000000
     17151       135  POPC      H11S           -3.3826042615        6.4122775186       41.0712138459  MEMB      129             0.0000000000
     17152       135  POPC      C212           -2.6938222533        4.3500630534       41.0301420348  MEMB      129             0.0000000000
     17153       135  POPC      H12R           -1.8339620675        3.8002024716       40.5955678796  MEMB      129             0.0000000000
     17154       135  POPC      H12S           -3.6289053945        3.8352950718       40.7134589802  MEMB      129             0.0000000000
     17155       135  POPC      C213           -2.5774718909        4.2492744619       42.5538099630  MEMB      129             0.0000000000
     17156       135  POPC      H13R           -3.2238978164        5.0071717132       43.0387671190  MEMB      129             0.0000000000
     17157       135  POPC      H13S           -1.5254348356        4.4676716311       42.8449695855  MEMB      129             0.0000000000
     17158       135  POPC      C214           -2.9868783403        2.8580155049       43.0598765267  MEMB      129             0.0000000000
     17159       135  POPC      H14R           -2.6802933485        2.0926349324       42.3186045452  MEMB      129             0.0000000000
     17160       135  POPC      H14S           -4.0851421926        2.7722927474       43.1558836246  MEMB      129             0.0000000000
     17161       135  POPC      C215           -2.3465433737        2.4870848894       44.3917926048  MEMB      129             0.0000000000
     17162       135  POPC      H15R           -1.2534257826        2.6144767897       44.2810922988  MEMB      129             0.0000000000
     17163       135  POPC      H15S           -2.5492710768        1.4109626543       44.6012585340  MEMB      129             0.0000000000
     17164       135  POPC      C216           -2.8331222574        3.3202804474       45.5780529354  MEMB      129             0.0000000000
     17165       135  POPC      H16R           -3.9454236082        3.3290041973       45.5797749569  MEMB      129             0.0000000000
     17166       135  POPC      H16S           -2.4866784793        4.3719588694       45.4775336915  MEMB      129             0.0000000000
     17167       135  POPC      C217           -2.3518410616        2.7261600399       46.9034704628  MEMB      129             0.0000000000
     17168       135  POPC      H17R           -2.7647895518        1.6937943415       46.9765350745  MEMB      129             0.0000000000
     17169       135  POPC      H17S           -2.7832189981        3.3143497651       47.7445197965  MEMB      129             0.0000000000
     17170       135  POPC      C218           -0.8297857279        2.6556050587       47.0539436204  MEMB      129             0.0000000000
     17171       135  POPC      H18R           -0.5432687785        1.8281209883       47.7362297886  MEMB      129             0.0000000000
     17172       135  POPC      H18S           -0.4381462009        3.6110324874       47.4628997535  MEMB      129             0.0000000000
     17173       135  POPC      H18T           -0.3212447432        2.4605461382       46.0923198252  MEMB      129             0.0000000000
     17174       135  POPC      C33             4.6172608287        9.5158283386       32.9405571059  MEMB      129             0.0000000000
     17175       135  POPC      H3X             4.7374068272       10.3640129334       32.2291132996  MEMB      129             0.0000000000
     17176       135  POPC      H3Y             5.5841529370        8.9606088250       32.9625574700  MEMB      129             0.0000000000
     17177       135  POPC      C34             4.3608415525       10.0923893963       34.3495096647  MEMB      129             0.0000000000
     17178       135  POPC      H4X             4.9379545411       11.0387870181       34.4547686068  MEMB      129             0.0000000000
     17179       135  POPC      H4Y             4.7616508826        9.3960187363       35.1148269745  MEMB      129             0.0000000000
     17180       135  POPC      C35             2.8752161344       10.3533910916       34.6538860247  MEMB      129             0.0000000000
     17181       135  POPC      H5X             2.3019806635        9.4053084219       34.5896771569  MEMB      129             0.0000000000
     17182       135  POPC      H5Y             2.4806134301       11.0461385352       33.8765837207  MEMB      129             0.0000000000
     17183       135  POPC      C36             2.6137850961       10.9690188261       36.0343375538  MEMB      129             0.0000000000
     17184       135  POPC      H6X             1.5820286873       11.3821468050       36.0344876655  MEMB      129             0.0000000000
     17185       135  POPC      H6Y             3.3168793549       11.8162398452       36.1808944401  MEMB      129             0.0000000000
     17186       135  POPC      C37             2.7302632832        9.9802051606       37.2053586992  MEMB      129             0.0000000000
     17187       135  POPC      H7X             3.7640677501        9.5662288134       37.2097562681  MEMB      129             0.0000000000
     17188       135  POPC      H7Y             2.0295648769        9.1308694613       37.0555857625  MEMB      129             0.0000000000
     17189       135  POPC      C38             2.4646435539       10.6356544621       38.5729155263  MEMB      129             0.0000000000
     17190       135  POPC      H8X             3.0798115282       11.5590063848       38.6360427212  MEMB      129             0.0000000000
     17191       135  POPC      H8Y             2.8075981334        9.9513014121       39.3764350813  MEMB      129             0.0000000000
     17192       135  POPC      C39             1.0021698683       11.0208719015       38.8456335418  MEMB      129             0.0000000000
     17193       135  POPC      H9X             0.5581243311       11.4348053341       37.9144725783  MEMB      129             0.0000000000
     17194       135  POPC      H9Y             0.9615900001       11.8328762823       39.6031923836  MEMB      129             0.0000000000
     17195       135  POPC      C310            0.1356839871        9.8495992026       39.3309747335  MEMB      129             0.0000000000
     17196       135  POPC      H10X            0.4384736812        8.9201996387       38.8073716024  MEMB      129             0.0000000000
     17197       135  POPC      H10Y           -0.9142148457       10.0701297439       39.0230376401  MEMB      129             0.0000000000
     17198       135  POPC      C311            0.1126371435        9.6316075053       40.8586437398  MEMB      129             0.0000000000
     17199       135  POPC      H11X           -0.7476900530        8.9627157979       41.0801329142  MEMB      129             0.0000000000
     17200       135  POPC      H11Y           -0.0993967500       10.5931638839       41.3675208828  MEMB      129             0.0000000000
     17201       135  POPC      C312            1.3802343969        9.0053597521       41.4663457183  MEMB      129             0.0000000000
     17202       135  POPC      H12X            2.1352493871        9.8031529260       41.6408627738  MEMB      129             0.0000000000
     17203       135  POPC      H12Y            1.8171000333        8.2950426704       40.7289704676  MEMB      129             0.0000000000
     17204       135  POPC      C313            1.1380472155        8.2293002344       42.7759589622  MEMB      129             0.0000000000
     17205       135  POPC      H13X            2.1212983323        7.9124156442       43.1922599693  MEMB      129             0.0000000000
     17206       135  POPC      H13Y            0.5753333517        7.3008482281       42.5396928286  MEMB      129             0.0000000000
     17207       135  POPC      C314            0.3591072691        8.9902995691       43.8633654740  MEMB      129             0.0000000000
     17208       135  POPC      H14X           -0.5848476874        9.3998587197       43.4501044082  MEMB      129             0.0000000000
     17209       135  POPC      H14Y            0.9729689871        9.8409472644       44.2217389760  MEMB      129             0.0000000000
     17210       135  POPC      C315            0.0254067268        8.0908893355       45.0586521305  MEMB      129             0.0000000000
     17211       135  POPC      H15X            0.9794524277        7.6299517819       45.3988727995  MEMB      129             0.0000000000
     17212       135  POPC      H15Y           -0.6539497926        7.2760843379       44.7167396785  MEMB      129             0.0000000000
     17213       135  POPC      C316           -0.6157220851        8.7946538199       46.2500228630  MEMB      129             0.0000000000
     17214       135  POPC      H16X           -0.0554098502        9.7159130241       46.5116945248  MEMB      129             0.0000000000
     17215       135  POPC      H16Y           -0.6281459279        8.1242859549       47.1372096740  MEMB      129             0.0000000000
     17216       135  POPC      H16Z           -1.6586327826        9.0830468058       46.0223488994  MEMB      129             0.0000000000
     17217       136  POPC      N              66.4618275119       64.7559565697       27.0801501388  MEMB      130             0.0000000000
     17218       136  POPC      C12            64.9916248452       64.5555088851       27.3839797213  MEMB      130             0.0000000000
     17219       136  POPC      H12A           64.6726461154       65.3822791783       28.0256276722  MEMB      130             0.0000000000
     17220       136  POPC      H12B           64.8236814952       63.6434321646       27.9294364854  MEMB      130             0.0000000000
     17221       136  POPC      C13            66.8578063485       63.8915769333       25.9344828478  MEMB      130             0.0000000000
     17222       136  POPC      H13A           66.9129778810       62.8515334414       26.2025627025  MEMB      130             0.0000000000
     17223       136  POPC      H13B           66.1258115037       64.0187880451       25.1311911439  MEMB      130             0.0000000000
     17224       136  POPC      H13C           67.8058888472       64.2295974163       25.5260698745  MEMB      130             0.0000000000
     17225       136  POPC      C14            66.6065313889       66.1938703498       26.6846211906  MEMB      130             0.0000000000
     17226       136  POPC      H14A           66.3099161547       66.8683436662       27.4853945063  MEMB      130             0.0000000000
     17227       136  POPC      H14B           67.6097990858       66.4534134225       26.3761125865  MEMB      130             0.0000000000
     17228       136  POPC      H14C           65.9074383061       66.4002353988       25.8642771611  MEMB      130             0.0000000000
     17229       136  POPC      C15            67.3630263644       64.4788773515       28.2315692076  MEMB      130             0.0000000000
     17230       136  POPC      H15A           68.3919023485       64.4909145596       27.8741833097  MEMB      130             0.0000000000
     17231       136  POPC      H15B           67.1280811478       63.5211056987       28.6810942772  MEMB      130             0.0000000000
     17232       136  POPC      H15C           67.2861334261       65.2618085596       28.9788109343  MEMB      130             0.0000000000
     17233       136  POPC      C11            64.0135538172       64.5688687401       26.1799574838  MEMB      130             0.0000000000
     17234       136  POPC      H11A           62.9947567402       64.2792882894       26.5363094289  MEMB      130             0.0000000000
     17235       136  POPC      H11B           64.2787853544       63.7897252068       25.4343804340  MEMB      130             0.0000000000
     17236       136  POPC      P              63.0706473655       66.9776938010       26.1354046803  MEMB      130             0.0000000000
     17237       136  POPC      O13            61.6568447164       66.5555023421       26.0049847049  MEMB      130             0.0000000000
     17238       136  POPC      O14            63.4069488565       68.2762532234       25.5139641278  MEMB      130             0.0000000000
     17239       136  POPC      O12            64.0135510845       65.8409906268       25.5419728920  MEMB      130             0.0000000000
     17240       136  POPC      O11            63.4828792794       66.9787624346       27.6564264028  MEMB      130             0.0000000000
     17241       136  POPC      C1             62.5222300041       67.0210375158       28.7091453265  MEMB      130             0.0000000000
     17242       136  POPC      HA             61.4592523523       66.9594103150       28.3793311735  MEMB      130             0.0000000000
     17243       136  POPC      HB             62.6421276213       68.0068604362       29.2202166511  MEMB      130             0.0000000000
     17244       136  POPC      C2             62.7922124581       65.9362572422       29.7884198147  MEMB      130             0.0000000000
     17245       136  POPC      HS             62.2952550702       66.2967414485       30.7270535625  MEMB      130             0.0000000000
     17246       136  POPC      O21            64.2080968490       65.7021194976       29.9483948960  MEMB      130             0.0000000000
     17247       136  POPC      C21            64.7044465134       66.4835196512       30.8726513723  MEMB      130             0.0000000000
     17248       136  POPC      O22            64.1264838303       67.4129969510       31.4077167158  MEMB      130             0.0000000000
     17249       136  POPC      C22            66.0092756198       65.8710132947       31.3799245541  MEMB      130             0.0000000000
     17250       136  POPC      H2R            66.3578445774       66.5354312823       32.1927607531  MEMB      130             0.0000000000
     17251       136  POPC      H2S            66.7361298615       65.8966221010       30.5518086959  MEMB      130             0.0000000000
     17252       136  POPC      C3             62.1698224038       64.5443668633       29.5891410059  MEMB      130             0.0000000000
     17253       136  POPC      HX             62.6901045616       64.0122298357       28.7675817127  MEMB      130             0.0000000000
     17254       136  POPC      HY             61.0912664471       64.6525373158       29.3301720381  MEMB      130             0.0000000000
     17255       136  POPC      O31            62.3762985529       63.8739385742       30.8509671965  MEMB      130             0.0000000000
     17256       136  POPC      C31            61.5531261089       62.8919224044       31.1407403297  MEMB      130             0.0000000000
     17257       136  POPC      O32            60.7972892434       62.3441588298       30.3588380926  MEMB      130             0.0000000000
     17258       136  POPC      C32            61.6166280081       62.6581187477       32.6573938853  MEMB      130             0.0000000000
     17259       136  POPC      H2X            60.6640901563       62.1646720440       32.9367214955  MEMB      130             0.0000000000
     17260       136  POPC      H2Y            61.6704753285       63.6421598263       33.1601589276  MEMB      130             0.0000000000
     17261       136  POPC      C23            65.9021041200       64.4114153637       31.8673577828  MEMB      130             0.0000000000
     17262       136  POPC      H3R            65.5624215896       63.7799160818       31.0196748722  MEMB      130             0.0000000000
     17263       136  POPC      H3S            65.1257132244       64.3407165146       32.6581780233  MEMB      130             0.0000000000
     17264       136  POPC      C24            67.2513749854       63.8691806379       32.3725193779  MEMB      130             0.0000000000
     17265       136  POPC      H4R            67.9869741088       63.8951151591       31.5390528114  MEMB      130             0.0000000000
     17266       136  POPC      H4S            67.1357323289       62.8202754539       32.7136308876  MEMB      130             0.0000000000
     17267       136  POPC      C25            67.8431923961       64.6235160030       33.5660142035  MEMB      130             0.0000000000
     17268       136  POPC      H5R            68.0118050825       65.6796716749       33.2732966618  MEMB      130             0.0000000000
     17269       136  POPC      H5S            68.8437023773       64.2011100756       33.8131606910  MEMB      130             0.0000000000
     17270       136  POPC      C26            66.9605103769       64.5376147314       34.8170911643  MEMB      130             0.0000000000
     17271       136  POPC      H6R            67.2230033963       63.6095668275       35.3748473591  MEMB      130             0.0000000000
     17272       136  POPC      H6S            65.8871101307       64.4588667917       34.5502623820  MEMB      130             0.0000000000
     17273       136  POPC      C27            67.1024826288       65.7535068053       35.7325821522  MEMB      130             0.0000000000
     17274       136  POPC      H7R            68.1795311619       65.8661817068       35.9461341288  MEMB      130             0.0000000000
     17275       136  POPC      H7S            66.5988153884       65.5583958688       36.7023200375  MEMB      130             0.0000000000
     17276       136  POPC      C28            66.5806484459       67.0767279528       35.1433818262  MEMB      130             0.0000000000
     17277       136  POPC      H8R            67.0365526471       67.2522177018       34.1521237323  MEMB      130             0.0000000000
     17278       136  POPC      H8S            66.9628963793       67.8871154039       35.8008152022  MEMB      130             0.0000000000
     17279       136  POPC      C29            65.0817002443       67.1090117577       34.9927548240  MEMB      130             0.0000000000
     17280       136  POPC      H91            64.6738295860       66.3912623197       34.2652808364  MEMB      130             0.0000000000
     17281       136  POPC      C210           64.2385475625       67.9267057829       35.6399146960  MEMB      130             0.0000000000
     17282       136  POPC      H101           63.1599378047       67.8566767403       35.4314058446  MEMB      130             0.0000000000
     17283       136  POPC      C211           64.6240955723       68.9764908647       36.6465659934  MEMB      130             0.0000000000
     17284       136  POPC      H11R           64.1251034533       69.9338986733       36.3923791308  MEMB      130             0.0000000000
     17285       136  POPC      H11S           65.7091880890       69.2137856284       36.6304119618  MEMB      130             0.0000000000
     17286       136  POPC      C212           64.2509641061       68.5640870451       38.0774739684  MEMB      130             0.0000000000
     17287       136  POPC      H12R           63.1962865864       68.2201307752       38.1407880567  MEMB      130             0.0000000000
     17288       136  POPC      H12S           64.3353393200       69.4819444388       38.6941987559  MEMB      130             0.0000000000
     17289       136  POPC      C213           65.1992525686       67.5036486383       38.6634238994  MEMB      130             0.0000000000
     17290       136  POPC      H13R           66.2326891543       67.9131486536       38.6187387195  MEMB      130             0.0000000000
     17291       136  POPC      H13S           65.1686661221       66.5878659994       38.0426785452  MEMB      130             0.0000000000
     17292       136  POPC      C214           64.8769573268       67.1630573987       40.1222545779  MEMB      130             0.0000000000
     17293       136  POPC      H14R           63.9147400674       66.6176338721       40.1990451852  MEMB      130             0.0000000000
     17294       136  POPC      H14S           64.7417521071       68.1385232815       40.6224121688  MEMB      130             0.0000000000
     17295       136  POPC      C215           65.9846587825       66.3831019788       40.8604565156  MEMB      130             0.0000000000
     17296       136  POPC      H15R           66.9656976995       66.8543575722       40.6330275632  MEMB      130             0.0000000000
     17297       136  POPC      H15S           66.0060025477       65.3509159701       40.4511780083  MEMB      130             0.0000000000
     17298       136  POPC      C216           65.8051706506       66.3579582885       42.4439655792  MEMB      130             0.0000000000
     17299       136  POPC      H16R           66.5722266846       65.5270152514       42.3941467226  MEMB      130             0.0000000000
     17300       136  POPC      H16S           65.6440552711       67.4515848936       42.2376217676  MEMB      130             0.0000000000
     17301       136  POPC      C217           66.8598218871       66.9839516880       43.4650068868  MEMB      130             0.0000000000
     17302       136  POPC      H17R           66.7773777894       68.0901926067       43.5665079369  MEMB      130             0.0000000000
     17303       136  POPC      H17S           67.8855914598       66.8323493481       43.0703843175  MEMB      130             0.0000000000
     17304       136  POPC      C218           66.7710153977       66.4003804205       44.8747298576  MEMB      130             0.0000000000
     17305       136  POPC      H18R           65.7177138902       66.3812914869       45.2276481562  MEMB      130             0.0000000000
     17306       136  POPC      H18S           67.3600425216       67.0071005841       45.5949771716  MEMB      130             0.0000000000
     17307       136  POPC      H18T           67.1786090946       65.3709970148       44.8924808093  MEMB      130             0.0000000000
     17308       136  POPC      C33            62.8139922064       61.8199923604       33.1604048910  MEMB      130             0.0000000000
     17309       136  POPC      H3X            63.7713838883       62.3728197207       33.0627512530  MEMB      130             0.0000000000
     17310       136  POPC      H3Y            62.8780625050       60.8980348378       32.5376718085  MEMB      130             0.0000000000
     17311       136  POPC      C34            62.6142951572       61.3554529258       34.6109503427  MEMB      130             0.0000000000
     17312       136  POPC      H4X            63.0721300439       60.3492816235       34.7425795519  MEMB      130             0.0000000000
     17313       136  POPC      H4Y            61.5230594438       61.2480235561       34.7737229731  MEMB      130             0.0000000000
     17314       136  POPC      C35            63.1369353653       62.2764728815       35.7178317776  MEMB      130             0.0000000000
     17315       136  POPC      H5X            62.5423928981       62.0568754648       36.6352298264  MEMB      130             0.0000000000
     17316       136  POPC      H5Y            62.9687902785       63.3435361358       35.4597721627  MEMB      130             0.0000000000
     17317       136  POPC      C36            64.6054444856       62.0119129601       36.0649723999  MEMB      130             0.0000000000
     17318       136  POPC      H6X            65.2493996386       62.4543418310       35.2778724421  MEMB      130             0.0000000000
     17319       136  POPC      H6Y            64.7931685858       60.9133169664       36.0561328116  MEMB      130             0.0000000000
     17320       136  POPC      C37            65.0160588212       62.5373897223       37.4506165550  MEMB      130             0.0000000000
     17321       136  POPC      H7X            66.1260468856       62.4681860414       37.5210321369  MEMB      130             0.0000000000
     17322       136  POPC      H7Y            64.5965667843       61.8724718255       38.2304006386  MEMB      130             0.0000000000
     17323       136  POPC      C38            64.5919478928       63.9822303263       37.7551599633  MEMB      130             0.0000000000
     17324       136  POPC      H8X            64.4921531314       64.5547318412       36.8074596402  MEMB      130             0.0000000000
     17325       136  POPC      H8Y            65.4213867330       64.4508748383       38.3338876796  MEMB      130             0.0000000000
     17326       136  POPC      C39            63.3209192032       64.1367521159       38.6164897681  MEMB      130             0.0000000000
     17327       136  POPC      H9X            62.4418446734       63.6952497438       38.1028671208  MEMB      130             0.0000000000
     17328       136  POPC      H9Y            63.1200602224       65.2257033915       38.7255778853  MEMB      130             0.0000000000
     17329       136  POPC      C310           63.4675848675       63.5245721390       40.0191931646  MEMB      130             0.0000000000
     17330       136  POPC      H10X           64.4734905324       63.7818379314       40.4194369028  MEMB      130             0.0000000000
     17331       136  POPC      H10Y           63.4144084028       62.4169556249       39.9502209148  MEMB      130             0.0000000000
     17332       136  POPC      C311           62.4235240876       64.0098075119       41.0342284064  MEMB      130             0.0000000000
     17333       136  POPC      H11X           61.3995619087       63.8116159252       40.6501447343  MEMB      130             0.0000000000
     17334       136  POPC      H11Y           62.5341442372       65.1082646588       41.1752300840  MEMB      130             0.0000000000
     17335       136  POPC      C312           62.6078027008       63.3115037425       42.3867710725  MEMB      130             0.0000000000
     17336       136  POPC      H12X           63.6971075003       63.2731341414       42.6194277340  MEMB      130             0.0000000000
     17337       136  POPC      H12Y           62.2504425644       62.2619717264       42.3071042768  MEMB      130             0.0000000000
     17338       136  POPC      C313           61.9095994210       64.0264383531       43.5489564654  MEMB      130             0.0000000000
     17339       136  POPC      H13X           60.8291333558       64.1640714507       43.3404049067  MEMB      130             0.0000000000
     17340       136  POPC      H13Y           62.3609133528       65.0412352321       43.6517493001  MEMB      130             0.0000000000
     17341       136  POPC      C314           62.0830993911       63.2763228974       44.8762958170  MEMB      130             0.0000000000
     17342       136  POPC      H14X           61.8837783846       63.9809168045       45.7096147991  MEMB      130             0.0000000000
     17343       136  POPC      H14Y           63.1358906630       62.9448613137       44.9519940912  MEMB      130             0.0000000000
     17344       136  POPC      C315           61.1651301792       62.0616399154       45.0359415459  MEMB      130             0.0000000000
     17345       136  POPC      H15X           61.3674134504       61.3468989280       44.2062959751  MEMB      130             0.0000000000
     17346       136  POPC      H15Y           60.1174533480       62.4207280504       44.9401188447  MEMB      130             0.0000000000
     17347       136  POPC      C316           61.3013450972       61.3157275672       46.3647342402  MEMB      130             0.0000000000
     17348       136  POPC      H16X           61.0700236849       61.9801739065       47.2194733283  MEMB      130             0.0000000000
     17349       136  POPC      H16Y           62.3298309680       60.9260196160       46.4966334017  MEMB      130             0.0000000000
     17350       136  POPC      H16Z           60.5992210298       60.4573003224       46.3906184999  MEMB      130             0.0000000000
     17351       137  TIP3      OH2            12.5135757898        9.9616220567       72.0165881005  TIP3      1               0.0000000000
     17352       137  TIP3      H1             12.1827564227       10.8271921025       72.3265345291  TIP3      1               0.0000000000
     17353       137  TIP3      H2             11.8410780326        9.7518672709       71.3250013852  TIP3      1               0.0000000000
     17354       138  TIP3      OH2            11.0417453460        8.6382024872       75.8089440431  TIP3      2               0.0000000000
     17355       138  TIP3      H1             11.3923532308        8.2195151171       76.6267695680  TIP3      2               0.0000000000
     17356       138  TIP3      H2             10.5062013574        7.9051225533       75.4393870503  TIP3      2               0.0000000000
     17357       139  TIP3      OH2             3.6863840978        8.6968973524       77.1458395982  TIP3      3               0.0000000000
     17358       139  TIP3      H1              3.7042562263        7.9488796751       77.7682421448  TIP3      3               0.0000000000
     17359       139  TIP3      H2              4.1107002669        9.3845985638       77.6969636851  TIP3      3               0.0000000000
     17360       140  TIP3      OH2            14.8156903514       12.1333705321       74.3188612557  TIP3      4               0.0000000000
     17361       140  TIP3      H1             14.6593332213       11.2647451681       74.7358727359  TIP3      4               0.0000000000
     17362       140  TIP3      H2             15.1387827802       12.6561531786       75.0740785354  TIP3      4               0.0000000000
     17363       141  TIP3      OH2             4.1786637951       13.3071720043       74.9552203327  TIP3      5               0.0000000000
     17364       141  TIP3      H1              4.0166801888       12.3378221298       75.0024001923  TIP3      5               0.0000000000
     17365       141  TIP3      H2              5.1530254197       13.2893753557       74.9595024427  TIP3      5               0.0000000000
     17366       142  TIP3      OH2             0.8104873488        7.1087887080       71.3901627139  TIP3      6               0.0000000000
     17367       142  TIP3      H1              0.9749432898        7.6801215065       72.1635429096  TIP3      6               0.0000000000
     17368       142  TIP3      H2              0.7271183863        7.7527564587       70.6658837203  TIP3      6               0.0000000000
     17369       143  TIP3      OH2             1.7745602940        8.9926086799       74.1317796843  TIP3      7               0.0000000000
     17370       143  TIP3      H1              2.1891954188        8.1034329471       74.0527976866  TIP3      7               0.0000000000
     17371       143  TIP3      H2              2.5139975661        9.5836408017       73.9062130099  TIP3      7               0.0000000000
     17372       144  TIP3      OH2            11.5491514874       17.1576173649       74.1605255585  TIP3      8               0.0000000000
     17373       144  TIP3      H1             12.2712749836       16.6938581599       73.6689738551  TIP3      8               0.0000000000
     17374       144  TIP3      H2             11.3039626609       16.4436324210       74.7581541924  TIP3      8               0.0000000000
     17375       145  TIP3      OH2             9.4026249515       10.8346093241       76.5647676693  TIP3      9               0.0000000000
     17376       145  TIP3      H1              9.7963009324       10.1012019661       76.0411460354  TIP3      9               0.0000000000
     17377       145  TIP3      H2             10.1684545299       11.4312795496       76.6572042340  TIP3      9               0.0000000000
     17378       146  TIP3      OH2            17.9193935127        2.8338492680       76.4803383632  TIP3      10              0.0000000000
     17379       146  TIP3      H1             17.9710318225        3.5412556959       77.1610157592  TIP3      10              0.0000000000
     17380       146  TIP3      H2             18.7557639548        2.9465105940       76.0176948039  TIP3      10              0.0000000000
     17381       147  TIP3      OH2            12.8979683952        5.9585043607       76.5069359932  TIP3      11              0.0000000000
     17382       147  TIP3      H1             13.1863067628        5.0245514409       76.5669668589  TIP3      11              0.0000000000
     17383       147  TIP3      H2             12.6380489634        6.0575273529       75.5662351580  TIP3      11              0.0000000000
     17384       148  TIP3      OH2             5.2167376375        3.6648074640       73.6042144834  TIP3      12              0.0000000000
     17385       148  TIP3      H1              5.6612723072        4.3409262804       73.0427239309  TIP3      12              0.0000000000
     17386       148  TIP3      H2              5.4239228737        2.8545459690       73.1139720646  TIP3      12              0.0000000000
     17387       149  TIP3      OH2            12.6522444871        4.0485146037       71.8931014672  TIP3      13              0.0000000000
     17388       149  TIP3      H1             13.2073601481        3.5989067676       72.5410228508  TIP3      13              0.0000000000
     17389       149  TIP3      H2             13.3114827038        4.6669986398       71.5069515199  TIP3      13              0.0000000000
     17390       150  TIP3      OH2             2.4869957451        6.4337852747       74.0399003338  TIP3      14              0.0000000000
     17391       150  TIP3      H1              2.9799987736        5.8627601006       74.6476655105  TIP3      14              0.0000000000
     17392       150  TIP3      H2              2.8516819718        6.1620881978       73.1666932768  TIP3      14              0.0000000000
     17393       151  TIP3      OH2             7.4547578037        7.7531988785       73.7387069883  TIP3      15              0.0000000000
     17394       151  TIP3      H1              8.3225100462        7.3486038789       73.9400540636  TIP3      15              0.0000000000
     17395       151  TIP3      H2              6.9659423748        6.9783088159       73.3915696450  TIP3      15              0.0000000000
     17396       152  TIP3      OH2            18.1644190179        4.3476838444       78.7420645398  TIP3      16              0.0000000000
     17397       152  TIP3      H1             17.7685600178        5.2205898405       78.5449537957  TIP3      16              0.0000000000
     17398       152  TIP3      H2             17.8499248520        4.2081322393       79.6504738880  TIP3      16              0.0000000000
     17399       153  TIP3      OH2             4.9597124182        2.8459485037       77.5009173746  TIP3      17              0.0000000000
     17400       153  TIP3      H1              4.7699150077        3.4882898069       76.7833238330  TIP3      17              0.0000000000
     17401       153  TIP3      H2              4.2177164208        3.0166540946       78.1056982157  TIP3      17              0.0000000000
     17402       154  TIP3      OH2            11.5543633052       12.5484056019       71.2339478719  TIP3      18              0.0000000000
     17403       154  TIP3      H1             11.5083071431       12.2210246627       70.3222510882  TIP3      18              0.0000000000
     17404       154  TIP3      H2             12.2654001790       13.2062047619       71.1763255180  TIP3      18              0.0000000000
     17405       155  TIP3      OH2             6.8329606793       10.5160429546       77.4488949407  TIP3      19              0.0000000000
     17406       155  TIP3      H1              6.3914586102       11.2216048784       77.9650520581  TIP3      19              0.0000000000
     17407       155  TIP3      H2              7.6580662836       10.9638015689       77.1491770047  TIP3      19              0.0000000000
     17408       156  TIP3      OH2            15.4726611583        3.9292454759       74.2077746485  TIP3      20              0.0000000000
     17409       156  TIP3      H1             15.6673223136        3.2271696892       74.8386282522  TIP3      20              0.0000000000
     17410       156  TIP3      H2             16.0698890603        4.6263243006       74.5342888693  TIP3      20              0.0000000000
     17411       157  TIP3      OH2             4.1299036032        4.7924852543       75.8190015851  TIP3      21              0.0000000000
     17412       157  TIP3      H1              4.7579408292        5.4379850656       76.2366420482  TIP3      21              0.0000000000
     17413       157  TIP3      H2              4.6413786832        4.5273858292       75.0131307719  TIP3      21              0.0000000000
     17414       158  TIP3      OH2             5.7081746804       12.8192306136       78.4817745656  TIP3      22              0.0000000000
     17415       158  TIP3      H1              5.3527066070       13.4544240129       77.8501427949  TIP3      22              0.0000000000
     17416       158  TIP3      H2              4.8967490966       12.5019055135       78.9302314431  TIP3      22              0.0000000000
     17417       159  TIP3      OH2             1.6483783860       12.0748647356       69.1556197255  TIP3      23              0.0000000000
     17418       159  TIP3      H1              0.7133451607       11.8006659762       69.2818071403  TIP3      23              0.0000000000
     17419       159  TIP3      H2              1.9076818721       12.3627263242       70.0441108668  TIP3      23              0.0000000000
     17420       160  TIP3      OH2            15.1509989568       13.7705209695       76.5508967521  TIP3      24              0.0000000000
     17421       160  TIP3      H1             14.1889688823       13.8964344864       76.7160339639  TIP3      24              0.0000000000
     17422       160  TIP3      H2             15.3236023071       14.6387062200       76.1284571327  TIP3      24              0.0000000000
     17423       161  TIP3      OH2            15.6740897137        2.6831545870       78.1175866876  TIP3      25              0.0000000000
     17424       161  TIP3      H1             14.9448786977        2.9886317263       77.5236420675  TIP3      25              0.0000000000
     17425       161  TIP3      H2             16.3928326274        2.5100528827       77.4761098713  TIP3      25              0.0000000000
     17426       162  TIP3      OH2             8.6891904442        0.7248198124       75.1866063432  TIP3      26              0.0000000000
     17427       162  TIP3      H1              8.5793946581       -0.2348646112       75.2326871826  TIP3      26              0.0000000000
     17428       162  TIP3      H2              7.8099449929        1.0117182806       75.5265625615  TIP3      26              0.0000000000
     17429       163  TIP3      OH2            13.4053018761       15.9740444238       72.7417689265  TIP3      27              0.0000000000
     17430       163  TIP3      H1             13.6996553342       15.1274735016       72.3472602361  TIP3      27              0.0000000000
     17431       163  TIP3      H2             14.2152754705       16.5377533182       72.6436021017  TIP3      27              0.0000000000
     17432       164  TIP3      OH2            14.2279288870       13.6320965216       71.4292324296  TIP3      28              0.0000000000
     17433       164  TIP3      H1             14.5090487601       12.9479410319       70.7927696567  TIP3      28              0.0000000000
     17434       164  TIP3      H2             14.4708766115       13.1814946812       72.2591713572  TIP3      28              0.0000000000
     17435       165  TIP3      OH2            16.2718204795       11.9779386667       80.1373216998  TIP3      29              0.0000000000
     17436       165  TIP3      H1             16.2724862155       11.2432850818       79.4808801076  TIP3      29              0.0000000000
     17437       165  TIP3      H2             16.4480659204       12.7358975182       79.5409152678  TIP3      29              0.0000000000
     17438       166  TIP3      OH2            11.0129514508        9.3809331726       69.8248218357  TIP3      30              0.0000000000
     17439       166  TIP3      H1             10.3076911608       10.0007794679       69.5398671015  TIP3      30              0.0000000000
     17440       166  TIP3      H2             11.5794510494        9.3092654914       69.0152811652  TIP3      30              0.0000000000
     17441       167  TIP3      OH2            18.0825824185        8.7172548035       77.9334315129  TIP3      31              0.0000000000
     17442       167  TIP3      H1             17.3592097126        9.3804959702       77.9600698553  TIP3      31              0.0000000000
     17443       167  TIP3      H2             18.6671098168        9.1527723960       77.2723102527  TIP3      31              0.0000000000
     17444       168  TIP3      OH2            14.3262466285        8.4176340764       70.5165429754  TIP3      32              0.0000000000
     17445       168  TIP3      H1             13.7511127080        9.0168986860       71.0462851849  TIP3      32              0.0000000000
     17446       168  TIP3      H2             15.0670240153        8.2899979071       71.1497908744  TIP3      32              0.0000000000
     17447       169  TIP3      OH2            14.2500354515        8.0013100169       80.0897298642  TIP3      33              0.0000000000
     17448       169  TIP3      H1             13.9973172667        8.8642948955       80.4795649517  TIP3      33              0.0000000000
     17449       169  TIP3      H2             13.6897902403        8.0280493454       79.2914899178  TIP3      33              0.0000000000
     17450       170  TIP3      OH2             5.7915719813        9.6686740006       72.7666279028  TIP3      34              0.0000000000
     17451       170  TIP3      H1              5.5330326266        9.4956167613       71.8417474059  TIP3      34              0.0000000000
     17452       170  TIP3      H2              6.4672655993        8.9710108575       72.9210849054  TIP3      34              0.0000000000
     17453       171  TIP3      OH2             6.9284214539       13.2234348635       74.9441160030  TIP3      35              0.0000000000
     17454       171  TIP3      H1              6.9519137565       13.2811107104       73.9623561308  TIP3      35              0.0000000000
     17455       171  TIP3      H2              7.4585378838       12.4338618684       75.1284570838  TIP3      35              0.0000000000
     17456       172  TIP3      OH2             6.3209608763        8.2739401632       76.1409710535  TIP3      36              0.0000000000
     17457       172  TIP3      H1              6.6009615509        8.3533957854       75.2064042109  TIP3      36              0.0000000000
     17458       172  TIP3      H2              6.4600565024        9.1759931731       76.5119872529  TIP3      36              0.0000000000
     17459       173  TIP3      OH2            12.4948056363       14.3096597464       76.8910515961  TIP3      37              0.0000000000
     17460       173  TIP3      H1             12.3042105446       14.9454256140       77.6020974262  TIP3      37              0.0000000000
     17461       173  TIP3      H2             12.1869905370       13.4589563749       77.2610703284  TIP3      37              0.0000000000
     17462       174  TIP3      OH2             6.9281873649       13.0082017648       80.9398955431  TIP3      38              0.0000000000
     17463       174  TIP3      H1              6.2775173013       13.6078713557       81.3673755576  TIP3      38              0.0000000000
     17464       174  TIP3      H2              6.5689505196       12.9346350584       80.0225911426  TIP3      38              0.0000000000
     17465       175  TIP3      OH2            13.0958164606        8.7849190054       68.2175228140  TIP3      39              0.0000000000
     17466       175  TIP3      H1             13.6469794564        8.5321773189       68.9852605970  TIP3      39              0.0000000000
     17467       175  TIP3      H2             13.6595969525        8.5888117701       67.4606237257  TIP3      39              0.0000000000
     17468       176  TIP3      OH2             4.4373199265        9.4229594740       79.6222255575  TIP3      40              0.0000000000
     17469       176  TIP3      H1              4.5440154258        9.9850215249       80.3968572558  TIP3      40              0.0000000000
     17470       176  TIP3      H2              3.5582749024        9.0246716869       79.8213149718  TIP3      40              0.0000000000
     17471       177  TIP3      OH2            10.3316442425       15.2125875975       71.0193759720  TIP3      41              0.0000000000
     17472       177  TIP3      H1             10.7301787220       14.4611481173       71.4996109718  TIP3      41              0.0000000000
     17473       177  TIP3      H2             10.2527940192       15.8689821140       71.7211641728  TIP3      41              0.0000000000
     17474       178  TIP3      OH2             5.3232715750       14.9707537636       81.8470895053  TIP3      42              0.0000000000
     17475       178  TIP3      H1              5.1155070408       14.9128981723       80.8869421153  TIP3      42              0.0000000000
     17476       178  TIP3      H2              4.4304767836       14.7200486017       82.2046845939  TIP3      42              0.0000000000
     17477       179  TIP3      OH2            16.5409661208        0.8312473125       69.0354540575  TIP3      43              0.0000000000
     17478       179  TIP3      H1             16.3004352705        1.7701961891       69.0887698074  TIP3      43              0.0000000000
     17479       179  TIP3      H2             17.4945557735        0.8335663801       69.2315714010  TIP3      43              0.0000000000
     17480       180  TIP3      OH2             5.0734148852        8.6280951225       70.2368652364  TIP3      44              0.0000000000
     17481       180  TIP3      H1              4.5258934181        9.3278090514       69.8037052246  TIP3      44              0.0000000000
     17482       180  TIP3      H2              4.5842292511        7.8573888929       69.9200291329  TIP3      44              0.0000000000
     17483       181  TIP3      OH2             1.3592127942       11.1377034737       79.7871215953  TIP3      45              0.0000000000
     17484       181  TIP3      H1              0.6950332256       11.2182115322       79.0763132182  TIP3      45              0.0000000000
     17485       181  TIP3      H2              1.5394647703       10.1686231132       79.7903574435  TIP3      45              0.0000000000
     17486       182  TIP3      OH2             0.6794306849       14.2263954103       76.1005483586  TIP3      46              0.0000000000
     17487       182  TIP3      H1              1.3772334919       13.6977456123       75.6867715511  TIP3      46              0.0000000000
     17488       182  TIP3      H2              1.1824427391       14.6576817567       76.8237536024  TIP3      46              0.0000000000
     17489       183  TIP3      OH2            18.6825626000       14.6734410645       81.6525008614  TIP3      47              0.0000000000
     17490       183  TIP3      H1             18.5595573889       13.7401247429       81.9162535799  TIP3      47              0.0000000000
     17491       183  TIP3      H2             17.8214859683       15.0385157046       81.9801795569  TIP3      47              0.0000000000
     17492       184  TIP3      OH2             9.2838939883       14.3686577781       80.7199725257  TIP3      48              0.0000000000
     17493       184  TIP3      H1              9.8345206324       14.7077331985       81.4437585281  TIP3      48              0.0000000000
     17494       184  TIP3      H2              8.5447330990       13.9190180101       81.1861335340  TIP3      48              0.0000000000
     17495       185  TIP3      OH2            10.6502505360       18.2751035609       69.6907199551  TIP3      49              0.0000000000
     17496       185  TIP3      H1              9.8466956362       18.5334863792       69.2324048806  TIP3      49              0.0000000000
     17497       185  TIP3      H2             10.6652003909       18.9818949008       70.3644036573  TIP3      49              0.0000000000
     17498       186  TIP3      OH2             3.7455007708       16.7491367558       72.1185837195  TIP3      50              0.0000000000
     17499       186  TIP3      H1              4.0948785277       16.6967992848       73.0400714179  TIP3      50              0.0000000000
     17500       186  TIP3      H2              3.2564051258       15.9174664077       72.0789690899  TIP3      50              0.0000000000
     17501       187  TIP3      OH2            13.1387551107       17.3640380398       70.2776462706  TIP3      51              0.0000000000
     17502       187  TIP3      H1             12.1772606243       17.4827802092       70.1104125691  TIP3      51              0.0000000000
     17503       187  TIP3      H2             13.1513638035       16.5708139309       70.8372810839  TIP3      51              0.0000000000
     17504       188  TIP3      OH2            15.8091534428        6.1875253970       81.7461561124  TIP3      52              0.0000000000
     17505       188  TIP3      H1             15.1023566590        6.7031483879       81.3124404287  TIP3      52              0.0000000000
     17506       188  TIP3      H2             15.8179446079        5.3780689586       81.2039494160  TIP3      52              0.0000000000
     17507       189  TIP3      OH2             3.5834487051       12.5640670278       80.2390620055  TIP3      53              0.0000000000
     17508       189  TIP3      H1              3.7597831645       12.0700779097       81.0688435525  TIP3      53              0.0000000000
     17509       189  TIP3      H2              2.6816892547       12.2091967266       80.0567726677  TIP3      53              0.0000000000
     17510       190  TIP3      OH2             6.2109880542        1.1569426874       75.9334476349  TIP3      54              0.0000000000
     17511       190  TIP3      H1              5.4467118670        1.1913068833       75.3169264663  TIP3      54              0.0000000000
     17512       190  TIP3      H2              5.8607194179        1.6757762327       76.6920638817  TIP3      54              0.0000000000
     17513       191  TIP3      OH2            10.5118132702        1.2200745797       80.1160139127  TIP3      55              0.0000000000
     17514       191  TIP3      H1             11.1006132752        0.4873954264       79.8930398311  TIP3      55              0.0000000000
     17515       191  TIP3      H2              9.7015177989        1.0467069865       79.6106629756  TIP3      55              0.0000000000
     17516       192  TIP3      OH2            13.4825895753        4.9384784649       80.3808462037  TIP3      56              0.0000000000
     17517       192  TIP3      H1             13.0019447503        4.6343873057       81.1836370928  TIP3      56              0.0000000000
     17518       192  TIP3      H2             13.1136603853        5.8274993013       80.2663414012  TIP3      56              0.0000000000
     17519       193  TIP3      OH2             6.0626006611        5.9014405148       77.2242720183  TIP3      57              0.0000000000
     17520       193  TIP3      H1              5.5086801477        5.9636690981       78.0340836892  TIP3      57              0.0000000000
     17521       193  TIP3      H2              6.0482166320        6.8440185869       76.9104618471  TIP3      57              0.0000000000
     17522       194  TIP3      OH2             5.9947964703        5.9609686299       72.3209350274  TIP3      58              0.0000000000
     17523       194  TIP3      H1              5.0872325286        6.2603867118       72.0900181832  TIP3      58              0.0000000000
     17524       194  TIP3      H2              6.2809813553        5.6805266877       71.4257376971  TIP3      58              0.0000000000
     17525       195  TIP3      OH2            11.0930239964        6.7103212980       70.4490185933  TIP3      59              0.0000000000
     17526       195  TIP3      H1             11.1965564335        7.6747349254       70.2989811564  TIP3      59              0.0000000000
     17527       195  TIP3      H2             11.7159046636        6.3197043796       69.7993898334  TIP3      59              0.0000000000
     17528       196  TIP3      OH2            10.1596038570        7.2954213583       82.1632222623  TIP3      60              0.0000000000
     17529       196  TIP3      H1              9.9906575542        6.3584465884       82.4168410717  TIP3      60              0.0000000000
     17530       196  TIP3      H2             10.6818037815        7.5828717025       82.9343722426  TIP3      60              0.0000000000
     17531       197  TIP3      OH2            12.4706380489        6.6773466384       73.8069107075  TIP3      61              0.0000000000
     17532       197  TIP3      H1             12.3108985898        7.5972969509       73.5234326955  TIP3      61              0.0000000000
     17533       197  TIP3      H2             12.4624814764        6.1914875493       72.9640190949  TIP3      61              0.0000000000
     17534       198  TIP3      OH2             3.6882827309        5.7717998303       78.8209295865  TIP3      62              0.0000000000
     17535       198  TIP3      H1              3.2621340422        6.1975064222       79.5770113829  TIP3      62              0.0000000000
     17536       198  TIP3      H2              3.1994887928        4.9259272017       78.7687805272  TIP3      62              0.0000000000
     17537       199  TIP3      OH2             6.9341890284        2.9247196287       65.3128200229  TIP3      63              0.0000000000
     17538       199  TIP3      H1              6.3795962866        3.2367861337       66.0559820281  TIP3      63              0.0000000000
     17539       199  TIP3      H2              6.8050686029        3.5855938778       64.6131321278  TIP3      63              0.0000000000
     17540       200  TIP3      OH2             1.4844644726        3.1468311976       72.6191089088  TIP3      64              0.0000000000
     17541       200  TIP3      H1              2.1106168692        3.1911392429       73.3528362924  TIP3      64              0.0000000000
     17542       200  TIP3      H2              0.7621562120        2.6537292336       73.0439694797  TIP3      64              0.0000000000
     17543       201  TIP3      OH2            11.9820870163        7.7142043822       78.1756072546  TIP3      65              0.0000000000
     17544       201  TIP3      H1             12.4587116628        7.0215196567       77.6448266201  TIP3      65              0.0000000000
     17545       201  TIP3      H2             11.3445404536        7.1410470525       78.6711004350  TIP3      65              0.0000000000
     17546       202  TIP3      OH2             8.8489499239        3.8293869247       72.9707718571  TIP3      66              0.0000000000
     17547       202  TIP3      H1              8.0998940498        3.2102899444       72.8824671133  TIP3      66              0.0000000000
     17548       202  TIP3      H2              9.4031827529        3.4096619269       73.6663595317  TIP3      66              0.0000000000
     17549       203  TIP3      OH2             3.3632836811        5.7918363929       71.5578795100  TIP3      67              0.0000000000
     17550       203  TIP3      H1              2.6717853787        6.0426122511       70.9243814744  TIP3      67              0.0000000000
     17551       203  TIP3      H2              3.6423073600        4.9256168198       71.2156432881  TIP3      67              0.0000000000
     17552       204  TIP3      OH2             6.6367978814        5.3693817385       69.6837621669  TIP3      68              0.0000000000
     17553       204  TIP3      H1              7.6191215840        5.2548260207       69.7038243309  TIP3      68              0.0000000000
     17554       204  TIP3      H2              6.5214462596        6.2010690943       69.2048024784  TIP3      68              0.0000000000
     17555       205  TIP3      OH2            13.6611097673        3.2847039511       76.5018972258  TIP3      69              0.0000000000
     17556       205  TIP3      H1             12.8067511445        3.2461205885       76.9655108864  TIP3      69              0.0000000000
     17557       205  TIP3      H2             13.4244296006        3.0679178562       75.5843309117  TIP3      69              0.0000000000
     17558       206  TIP3      OH2            15.7238412676       18.5982113295       82.9299069229  TIP3      70              0.0000000000
     17559       206  TIP3      H1             16.2617342013       18.8775103345       82.1594554685  TIP3      70              0.0000000000
     17560       206  TIP3      H2             16.3424879029       18.7982003124       83.6452543707  TIP3      70              0.0000000000
     17561       207  TIP3      OH2             3.6471048285       11.0074878324       82.6571164126  TIP3      71              0.0000000000
     17562       207  TIP3      H1              4.4501364173       11.0053391552       83.2382495759  TIP3      71              0.0000000000
     17563       207  TIP3      H2              3.0365771225       10.5518850132       83.2545845798  TIP3      71              0.0000000000
     17564       208  TIP3      OH2             9.5700650440        6.3969057094       74.8159033483  TIP3      72              0.0000000000
     17565       208  TIP3      H1             10.2365418799        5.8383977258       74.3786831531  TIP3      72              0.0000000000
     17566       208  TIP3      H2              8.9146298507        5.7474541721       75.1143485963  TIP3      72              0.0000000000
     17567       209  TIP3      OH2             4.9046051983        2.6733262512       70.9542079994  TIP3      73              0.0000000000
     17568       209  TIP3      H1              4.2401457189        2.0621702058       71.3070391616  TIP3      73              0.0000000000
     17569       209  TIP3      H2              5.6940404289        2.1081984269       70.9458477667  TIP3      73              0.0000000000
     17570       210  TIP3      OH2             8.3307365244        4.6270073359       77.3206020593  TIP3      74              0.0000000000
     17571       210  TIP3      H1              7.5612629982        5.2445855270       77.3373928412  TIP3      74              0.0000000000
     17572       210  TIP3      H2              9.0451724178        5.2205835747       77.5955918041  TIP3      74              0.0000000000
     17573       211  TIP3      OH2             9.1287656484       11.2297298445       69.3739782259  TIP3      75              0.0000000000
     17574       211  TIP3      H1              8.3550594127       10.7528839538       68.9966723719  TIP3      75              0.0000000000
     17575       211  TIP3      H2              8.7761715896       11.5269107754       70.2481791812  TIP3      75              0.0000000000
     17576       212  TIP3      OH2            16.3283372954       10.7027974787       77.8188298763  TIP3      76              0.0000000000
     17577       212  TIP3      H1             16.8666735700       11.3715428405       77.3275906669  TIP3      76              0.0000000000
     17578       212  TIP3      H2             15.6930950796       10.4302673765       77.1270370246  TIP3      76              0.0000000000
     17579       213  TIP3      OH2             9.9732069389       11.7204929578       79.8904981949  TIP3      77              0.0000000000
     17580       213  TIP3      H1              9.9126370598       11.1129396232       80.6466913856  TIP3      77              0.0000000000
     17581       213  TIP3      H2              9.6881979512       12.5636629030       80.2844430449  TIP3      77              0.0000000000
     17582       214  TIP3      OH2            13.2215511993        5.8402025117       68.9854332333  TIP3      78              0.0000000000
     17583       214  TIP3      H1             13.4736649344        6.6690094996       69.4229618770  TIP3      78              0.0000000000
     17584       214  TIP3      H2             13.9014854978        5.8504764941       68.2731222583  TIP3      78              0.0000000000
     17585       215  TIP3      OH2             4.2805793094       10.4687332324       74.8959723382  TIP3      79              0.0000000000
     17586       215  TIP3      H1              4.8589693905       10.2361650383       74.1308632935  TIP3      79              0.0000000000
     17587       215  TIP3      H2              4.3376709992        9.6740766788       75.4602080270  TIP3      79              0.0000000000
     17588       216  TIP3      OH2            11.1252363400       12.6329763221       68.3108715264  TIP3      80              0.0000000000
     17589       216  TIP3      H1             10.6117934747       13.4468480700       68.4897171848  TIP3      80              0.0000000000
     17590       216  TIP3      H2             10.4676135371       11.9445841748       68.5698821053  TIP3      80              0.0000000000
     17591       217  TIP3      OH2             1.8332316465        8.5398869386       80.1151988062  TIP3      81              0.0000000000
     17592       217  TIP3      H1              1.6850975458        8.4825605641       81.0912365059  TIP3      81              0.0000000000
     17593       217  TIP3      H2              0.9632934169        8.2131451485       79.7901116527  TIP3      81              0.0000000000
     17594       218  TIP3      OH2             7.6631371776        8.4541863714       81.8068902685  TIP3      82              0.0000000000
     17595       218  TIP3      H1              7.2977707656        8.0907651005       80.9786282890  TIP3      82              0.0000000000
     17596       218  TIP3      H2              8.5140872704        7.9645148065       81.8649155488  TIP3      82              0.0000000000
     17597       219  TIP3      OH2            12.8755050262       13.7016490498       80.5465389168  TIP3      83              0.0000000000
     17598       219  TIP3      H1             12.0991317399       13.8333137204       79.9958504188  TIP3      83              0.0000000000
     17599       219  TIP3      H2             12.6070486673       14.2179097066       81.3343948416  TIP3      83              0.0000000000
     17600       220  TIP3      OH2            18.7203025273       11.8992224506       81.4588575251  TIP3      84              0.0000000000
     17601       220  TIP3      H1             17.8145796089       11.9457743334       81.0812949532  TIP3      84              0.0000000000
     17602       220  TIP3      H2             19.2626261144       11.8497467294       80.6397814972  TIP3      84              0.0000000000
     17603       221  TIP3      OH2            16.6986694925       14.7274456682       69.0508054989  TIP3      85              0.0000000000
     17604       221  TIP3      H1             16.4464747795       13.8528218194       69.3757721089  TIP3      85              0.0000000000
     17605       221  TIP3      H2             16.6841215563       14.6234699859       68.0820007135  TIP3      85              0.0000000000
     17606       222  TIP3      OH2            14.4346806755        9.6913713573       75.9518162169  TIP3      86              0.0000000000
     17607       222  TIP3      H1             13.5361604481        9.4267307952       76.1931279940  TIP3      86              0.0000000000
     17608       222  TIP3      H2             14.7470969974        8.9105270752       75.4411673242  TIP3      86              0.0000000000
     17609       223  TIP3      OH2             6.4768210979       14.0252108915       72.3768172066  TIP3      87              0.0000000000
     17610       223  TIP3      H1              6.5858179208       14.9720917296       72.1786699320  TIP3      87              0.0000000000
     17611       223  TIP3      H2              5.8512731514       13.7427655057       71.6921601164  TIP3      87              0.0000000000
     17612       224  TIP3      OH2             8.0190791674       11.8413319406       71.7350320178  TIP3      88              0.0000000000
     17613       224  TIP3      H1              7.6286885297       12.7323924533       71.8130088929  TIP3      88              0.0000000000
     17614       224  TIP3      H2              7.4164045509       11.3130720491       72.2833746385  TIP3      88              0.0000000000
     17615       225  TIP3      OH2             8.0434022348       15.8359010014       78.7850436959  TIP3      89              0.0000000000
     17616       225  TIP3      H1              8.8077345321       16.3633596740       78.4447284253  TIP3      89              0.0000000000
     17617       225  TIP3      H2              8.5507096797       15.2532890054       79.4039307959  TIP3      89              0.0000000000
     17618       226  TIP3      OH2             6.4507525741       16.5911455992       71.0490820020  TIP3      90              0.0000000000
     17619       226  TIP3      H1              5.5478242965       16.8021799546       71.3517974513  TIP3      90              0.0000000000
     17620       226  TIP3      H2              6.9664532590       17.2531639961       71.5647661279  TIP3      90              0.0000000000
     17621       227  TIP3      OH2            11.7134408765       11.6429164371       77.7450101552  TIP3      91              0.0000000000
     17622       227  TIP3      H1             11.1566386870       11.5114227857       78.5540877930  TIP3      91              0.0000000000
     17623       227  TIP3      H2             11.8705056851       10.7394073798       77.4302669668  TIP3      91              0.0000000000
     17624       228  TIP3      OH2            13.6686503400       13.4012426512       67.7686829940  TIP3      92              0.0000000000
     17625       228  TIP3      H1             14.1229058842       12.7951198623       68.3730598670  TIP3      92              0.0000000000
     17626       228  TIP3      H2             12.7470183958       13.0990493438       67.8973881841  TIP3      92              0.0000000000
     17627       229  TIP3      OH2            15.0027745710       16.0648197453       80.0807340774  TIP3      93              0.0000000000
     17628       229  TIP3      H1             14.1396288442       15.6276702539       79.9502808106  TIP3      93              0.0000000000
     17629       229  TIP3      H2             14.9559588915       16.8195803573       79.4493644862  TIP3      93              0.0000000000
     17630       230  TIP3      OH2            18.8460171482       17.9532646338       67.6494086232  TIP3      94              0.0000000000
     17631       230  TIP3      H1             18.8433607897       18.1182059533       66.6879478192  TIP3      94              0.0000000000
     17632       230  TIP3      H2             17.9842914526       18.3352591200       67.8794868923  TIP3      94              0.0000000000
     17633       231  TIP3      OH2             2.5938169726        3.3994226327       79.5861647945  TIP3      95              0.0000000000
     17634       231  TIP3      H1              2.1410634302        4.0158479489       80.2041103917  TIP3      95              0.0000000000
     17635       231  TIP3      H2              2.8867500518        2.6960789612       80.1839814457  TIP3      95              0.0000000000
     17636       232  TIP3      OH2            15.0060680385       11.5454105295       69.5351456971  TIP3      96              0.0000000000
     17637       232  TIP3      H1             14.8274637983       10.5960059596       69.6362800184  TIP3      96              0.0000000000
     17638       232  TIP3      H2             15.9365269010       11.5293783014       69.2007292012  TIP3      96              0.0000000000
     17639       233  TIP3      OH2             2.2282643786       14.8391499903       78.2843078677  TIP3      97              0.0000000000
     17640       233  TIP3      H1              2.7655638892       14.0912622825       78.6162653863  TIP3      97              0.0000000000
     17641       233  TIP3      H2              2.6003723206       15.5879463794       78.7653613088  TIP3      97              0.0000000000
     17642       234  TIP3      OH2             3.2829813664        9.9711698544       68.7760297417  TIP3      98              0.0000000000
     17643       234  TIP3      H1              2.5261300850       10.5951432717       68.7703496435  TIP3      98              0.0000000000
     17644       234  TIP3      H2              3.0384402578        9.3962454792       68.0316210108  TIP3      98              0.0000000000
     17645       235  TIP3      OH2            11.6304691504        3.2490538366       78.7660791815  TIP3      99              0.0000000000
     17646       235  TIP3      H1             12.3848919806        3.4461890251       79.3463328610  TIP3      99              0.0000000000
     17647       235  TIP3      H2             11.1631345216        2.6043708922       79.3457953407  TIP3      99              0.0000000000
     17648       236  TIP3      OH2            12.3589561645        2.9087527264       69.1806399704  TIP3      100             0.0000000000
     17649       236  TIP3      H1             12.6208745112        3.8296785964       69.0037346886  TIP3      100             0.0000000000
     17650       236  TIP3      H2             12.3818363085        2.9565401074       70.1490542420  TIP3      100             0.0000000000
     17651       237  TIP3      OH2             9.7092892128       15.3125855870       68.2650289278  TIP3      101             0.0000000000
     17652       237  TIP3      H1              8.7967911767       15.6456921317       68.3864048536  TIP3      101             0.0000000000
     17653       237  TIP3      H2             10.0403441943       15.4477439710       69.1812934440  TIP3      101             0.0000000000
     17654       238  TIP3      OH2             9.1577192355        4.7982948599       70.3573276387  TIP3      102             0.0000000000
     17655       238  TIP3      H1              9.7633413925        5.5702181180       70.4458300547  TIP3      102             0.0000000000
     17656       238  TIP3      H2              9.0497295659        4.5093588481       71.2851599995  TIP3      102             0.0000000000
     17657       239  TIP3      OH2            10.6189103660        5.9247447707       79.5880992788  TIP3      103             0.0000000000
     17658       239  TIP3      H1             10.6795563690        6.1885463639       80.5255687013  TIP3      103             0.0000000000
     17659       239  TIP3      H2             10.7244072208        4.9566859114       79.5967411322  TIP3      103             0.0000000000
     17660       240  TIP3      OH2            10.5094409201        1.3903321762       71.7484162410  TIP3      104             0.0000000000
     17661       240  TIP3      H1             10.2851789756        2.3225304762       71.6093498420  TIP3      104             0.0000000000
     17662       240  TIP3      H2             11.2937747780        1.4558203075       72.3461812961  TIP3      104             0.0000000000
     17663       241  TIP3      OH2             7.2478032259       16.5587337976       68.3951227090  TIP3      105             0.0000000000
     17664       241  TIP3      H1              6.7553738382       17.3329199734       68.0705522379  TIP3      105             0.0000000000
     17665       241  TIP3      H2              6.9499559017       16.5304267399       69.3292805173  TIP3      105             0.0000000000
     17666       242  TIP3      OH2             6.0246526939        2.9589961739       68.0716330992  TIP3      106             0.0000000000
     17667       242  TIP3      H1              5.8693730348        3.6686594524       68.7232437079  TIP3      106             0.0000000000
     17668       242  TIP3      H2              6.6793953849        2.4259654816       68.5279408273  TIP3      106             0.0000000000
     17669       243  TIP3      OH2            15.9456353299        3.7315736135       80.5255895608  TIP3      107             0.0000000000
     17670       243  TIP3      H1             14.9995670640        3.9453410349       80.6451902201  TIP3      107             0.0000000000
     17671       243  TIP3      H2             15.9022407959        3.3582030312       79.6102620089  TIP3      107             0.0000000000
     17672       244  TIP3      OH2            15.1509446800        7.3912408357       74.4387839093  TIP3      108             0.0000000000
     17673       244  TIP3      H1             14.4274215441        6.7507112324       74.3235645029  TIP3      108             0.0000000000
     17674       244  TIP3      H2             15.8521780342        6.8349283851       74.8582650994  TIP3      108             0.0000000000
     17675       245  TIP3      OH2            15.5830998428       16.5315702705       76.3447124639  TIP3      109             0.0000000000
     17676       245  TIP3      H1             15.7257551873       17.0837176072       75.5551909497  TIP3      109             0.0000000000
     17677       245  TIP3      H2             16.5099414783       16.4284409891       76.6494942867  TIP3      109             0.0000000000
     17678       246  TIP3      OH2             3.5645450299        0.8707515843       74.8117977552  TIP3      110             0.0000000000
     17679       246  TIP3      H1              3.4457493416        0.8489070716       73.8352800841  TIP3      110             0.0000000000
     17680       246  TIP3      H2              3.1542024039        0.0145054658       75.0719823030  TIP3      110             0.0000000000
     17681       247  TIP3      OH2             2.7088528103       14.3245228557       70.5752703591  TIP3      111             0.0000000000
     17682       247  TIP3      H1              1.8474464594       14.6727974033       70.8421543591  TIP3      111             0.0000000000
     17683       247  TIP3      H2              3.1075407184       15.0628241430       70.0996075444  TIP3      111             0.0000000000
     17684       248  TIP3      OH2             1.9817699229       17.2857594206       82.8193968416  TIP3      112             0.0000000000
     17685       248  TIP3      H1              2.5324194173       17.1935448640       83.6226909595  TIP3      112             0.0000000000
     17686       248  TIP3      H2              1.2261710916       16.7325543061       83.0360583940  TIP3      112             0.0000000000
     17687       249  TIP3      OH2             6.1881716555       16.2116911996       84.2278606433  TIP3      113             0.0000000000
     17688       249  TIP3      H1              6.9984360646       15.7837651650       84.5707374724  TIP3      113             0.0000000000
     17689       249  TIP3      H2              6.0604245971       15.6715408309       83.4260259849  TIP3      113             0.0000000000
     17690       250  TIP3      OH2            12.3675452762       15.0006619693       82.8503534095  TIP3      114             0.0000000000
     17691       250  TIP3      H1             12.0920793216       14.0879633990       83.1209881929  TIP3      114             0.0000000000
     17692       250  TIP3      H2             13.3004098074       15.0473161173       83.1582362666  TIP3      114             0.0000000000
     17693       251  TIP3      OH2             0.6961212058       11.4411383002       83.3088747923  TIP3      115             0.0000000000
     17694       251  TIP3      H1              0.9164017106       10.7152600479       82.7093799898  TIP3      115             0.0000000000
     17695       251  TIP3      H2             -0.2784637612       11.3636913190       83.2743443226  TIP3      115             0.0000000000
     17696       252  TIP3      OH2             8.1428182005       10.9852227308       82.4454856683  TIP3      116             0.0000000000
     17697       252  TIP3      H1              7.7557481990       11.6198597832       81.8078073265  TIP3      116             0.0000000000
     17698       252  TIP3      H2              7.9428370677       10.0985725009       82.0666365787  TIP3      116             0.0000000000
     17699       253  TIP3      OH2            13.8563254255       10.8707113625       80.6150737855  TIP3      117             0.0000000000
     17700       253  TIP3      H1             14.7241196789       11.3369246380       80.5908062137  TIP3      117             0.0000000000
     17701       253  TIP3      H2             13.2688595536       11.6550025927       80.6059164156  TIP3      117             0.0000000000
     17702       254  TIP3      OH2             1.7807032006        8.3228702608       82.8492938941  TIP3      118             0.0000000000
     17703       254  TIP3      H1              2.5048633456        7.6633973537       82.7732028158  TIP3      118             0.0000000000
     17704       254  TIP3      H2              2.0848991742        8.7512428160       83.6685723456  TIP3      118             0.0000000000
     17705       255  TIP3      OH2             7.1975978112        9.9638331065       68.0170487082  TIP3      119             0.0000000000
     17706       255  TIP3      H1              6.6613720429        9.2044009919       68.2825744891  TIP3      119             0.0000000000
     17707       255  TIP3      H2              7.5308079987        9.6862044581       67.1359525952  TIP3      119             0.0000000000
     17708       256  TIP3      OH2             6.1935243118        7.2584569872       79.6873116111  TIP3      120             0.0000000000
     17709       256  TIP3      H1              5.5569860097        8.0007708234       79.6264187217  TIP3      120             0.0000000000
     17710       256  TIP3      H2              6.9298091470        7.6321323627       79.1466130519  TIP3      120             0.0000000000
     17711       257  TIP3      OH2            11.7474839469       10.1767528288       83.6410895581  TIP3      121             0.0000000000
     17712       257  TIP3      H1             12.2759666613        9.6080272038       83.0554533165  TIP3      121             0.0000000000
     17713       257  TIP3      H2             11.3137996318        9.5269561000       84.2187901158  TIP3      121             0.0000000000
     17714       258  TIP3      OH2             6.6110857671        5.1324741278       81.2715372769  TIP3      122             0.0000000000
     17715       258  TIP3      H1              6.5965779839        4.3937479644       80.6198238509  TIP3      122             0.0000000000
     17716       258  TIP3      H2              6.3273570777        5.8815207655       80.7001840573  TIP3      122             0.0000000000
     17717       259  TIP3      OH2             6.9299935548        3.2851424589       79.2147646442  TIP3      123             0.0000000000
     17718       259  TIP3      H1              7.6271608702        3.6828327775       78.6385553015  TIP3      123             0.0000000000
     17719       259  TIP3      H2              6.1982244948        3.2871415557       78.5685471053  TIP3      123             0.0000000000
     17720       260  TIP3      OH2             8.4193469844        8.7251447060       78.8740668153  TIP3      124             0.0000000000
     17721       260  TIP3      H1              9.3480622514        8.6547079137       78.6227556767  TIP3      124             0.0000000000
     17722       260  TIP3      H2              8.0986262291        9.4857236569       78.3484313759  TIP3      124             0.0000000000
     17723       261  TIP3      OH2            13.1992019311        5.9574262818       83.9939611842  TIP3      125             0.0000000000
     17724       261  TIP3      H1             13.3582987773        5.0071784646       84.0891749810  TIP3      125             0.0000000000
     17725       261  TIP3      H2             14.0831315044        6.3140183473       84.1393248048  TIP3      125             0.0000000000
     17726       262  TIP3      OH2            14.6887782284        9.4639196903       82.8253054811  TIP3      126             0.0000000000
     17727       262  TIP3      H1             14.3128854821       10.0703366726       82.1604646640  TIP3      126             0.0000000000
     17728       262  TIP3      H2             15.5283096105        9.2105193114       82.3920359236  TIP3      126             0.0000000000
     17729       263  TIP3      OH2             4.1840669881        6.6040978730       82.7437420071  TIP3      127             0.0000000000
     17730       263  TIP3      H1              4.1426362628        5.9136853485       83.4400707025  TIP3      127             0.0000000000
     17731       263  TIP3      H2              4.9666440664        6.3256054253       82.2397247114  TIP3      127             0.0000000000
     17732       264  TIP3      OH2             7.6877236978        0.7068509181       79.1678816942  TIP3      128             0.0000000000
     17733       264  TIP3      H1              7.3826844874        1.6483549794       79.0994371954  TIP3      128             0.0000000000
     17734       264  TIP3      H2              6.8421878687        0.2163102749       79.2224497861  TIP3      128             0.0000000000
     17735       265  TIP3      OH2             8.9063837713        4.9639378001       82.7769701008  TIP3      129             0.0000000000
     17736       265  TIP3      H1              8.6444291550        4.3351823980       83.4750846863  TIP3      129             0.0000000000
     17737       265  TIP3      H2              8.0827050206        4.9882969955       82.2413778122  TIP3      129             0.0000000000
     17738       266  TIP3      OH2            11.6237768676        4.2373014476       82.1283077862  TIP3      130             0.0000000000
     17739       266  TIP3      H1             10.6985717445        4.2419767797       82.4245073078  TIP3      130             0.0000000000
     17740       266  TIP3      H2             12.0192569202        3.5215153822       82.6689584874  TIP3      130             0.0000000000
     17741       267  TIP3      OH2            13.2744723018        2.3951535591       83.5071135856  TIP3      131             0.0000000000
     17742       267  TIP3      H1             12.8825940356        1.4911122805       83.5368366293  TIP3      131             0.0000000000
     17743       267  TIP3      H2             13.2095190982        2.6386946623       84.4506673674  TIP3      131             0.0000000000
     17744       268  TIP3      OH2             2.4347717947        3.8503306832       82.8888930739  TIP3      132             0.0000000000
     17745       268  TIP3      H1              2.7922613234        2.9608418152       82.7252273827  TIP3      132             0.0000000000
     17746       268  TIP3      H2              2.8527604252        4.0498197469       83.7535442346  TIP3      132             0.0000000000
     17747       269  TIP3      OH2             7.7632812732        0.7205789486       81.8334827151  TIP3      133             0.0000000000
     17748       269  TIP3      H1              8.3529047832       -0.0701619344       81.8638639617  TIP3      133             0.0000000000
     17749       269  TIP3      H2              7.8691091129        0.9573878989       80.8881482413  TIP3      133             0.0000000000
     17750       270  TIP3      OH2             8.8363394550        0.9379406485       84.3963483441  TIP3      134             0.0000000000
     17751       270  TIP3      H1              8.5395162849        0.8683837182       83.4691039642  TIP3      134             0.0000000000
     17752       270  TIP3      H2              8.3582598657        1.7396403086       84.6570041287  TIP3      134             0.0000000000
     17753       271  TIP3      OH2            66.1655571769       18.2193545948       71.6985041704  TIP3      135             0.0000000000
     17754       271  TIP3      H1             65.5311099435       17.5377859163       71.4207473222  TIP3      135             0.0000000000
     17755       271  TIP3      H2             66.7087374653       17.7163707088       72.3523390251  TIP3      135             0.0000000000
     17756       272  TIP3      OH2             1.1068452233       16.6240721595       73.5247601977  TIP3      136             0.0000000000
     17757       272  TIP3      H1              0.6403317468       15.9604061372       74.0595873714  TIP3      136             0.0000000000
     17758       272  TIP3      H2              1.7053652429       17.0073378147       74.2004639486  TIP3      136             0.0000000000
     17759       273  TIP3      OH2            18.2819631256       16.7070190641       76.5310392922  TIP3      137             0.0000000000
     17760       273  TIP3      H1             18.6029254580       17.1315818297       77.3401096150  TIP3      137             0.0000000000
     17761       273  TIP3      H2             19.0029935665       16.9273942288       75.9269943243  TIP3      137             0.0000000000
     17762       274  TIP3      OH2            18.3923681626       16.5572500210       79.5644670530  TIP3      138             0.0000000000
     17763       274  TIP3      H1             17.8771864777       15.8986370642       79.0447785359  TIP3      138             0.0000000000
     17764       274  TIP3      H2             18.6565750262       15.9749038809       80.3080372363  TIP3      138             0.0000000000
     17765       275  TIP3      OH2            16.9285589361       12.4524097103       84.5031220674  TIP3      139             0.0000000000
     17766       275  TIP3      H1             16.0606517809       12.5497122243       84.9495015511  TIP3      139             0.0000000000
     17767       275  TIP3      H2             17.3332562601       13.3277853209       84.7113248538  TIP3      139             0.0000000000
     17768       276  TIP3      OH2            17.7475296900       11.4188787822       69.2599824042  TIP3      140             0.0000000000
     17769       276  TIP3      H1             18.6338838513       11.8266533461       69.3165183334  TIP3      140             0.0000000000
     17770       276  TIP3      H2             17.8541890908       10.6787488441       69.8904775300  TIP3      140             0.0000000000
     17771       277  TIP3      OH2            18.4267143629        9.5190957498       71.4760990017  TIP3      141             0.0000000000
     17772       277  TIP3      H1             17.5604975490        9.0652531082       71.5778291959  TIP3      141             0.0000000000
     17773       277  TIP3      H2             18.8173372270        9.2779202336       72.3368347235  TIP3      141             0.0000000000
     17774       278  TIP3      OH2            18.1880226469       11.9511786504       76.3683811117  TIP3      142             0.0000000000
     17775       278  TIP3      H1             18.7836840613       11.2256791799       76.0881058333  TIP3      142             0.0000000000
     17776       278  TIP3      H2             18.6722254767       12.7442663111       76.0700256410  TIP3      142             0.0000000000
     17777       279  TIP3      OH2            16.7827321343       14.4900082358       78.6871524939  TIP3      143             0.0000000000
     17778       279  TIP3      H1             16.0353653890       14.9752924564       79.0953551108  TIP3      143             0.0000000000
     17779       279  TIP3      H2             16.3595520173       14.1618620868       77.8633002876  TIP3      143             0.0000000000
     17780       280  TIP3      OH2            18.2377416139        8.9581690574       67.9580905874  TIP3      144             0.0000000000
     17781       280  TIP3      H1             17.7558628728        8.3252504881       67.4084903766  TIP3      144             0.0000000000
     17782       280  TIP3      H2             18.0922267473        9.8184109134       67.5494251178  TIP3      144             0.0000000000
     17783       281  TIP3      OH2            16.3567136848        8.0783273581       72.2229694045  TIP3      145             0.0000000000
     17784       281  TIP3      H1             16.1936282569        7.1261614719       72.1262011073  TIP3      145             0.0000000000
     17785       281  TIP3      H2             16.0799255994        8.1895052269       73.1600855372  TIP3      145             0.0000000000
     17786       282  TIP3      OH2             1.0638880874        9.1762704270       76.6808830177  TIP3      146             0.0000000000
     17787       282  TIP3      H1              0.9934316362        9.1413530373       75.6958744536  TIP3      146             0.0000000000
     17788       282  TIP3      H2              1.9963301717        8.8855940190       76.7798719303  TIP3      146             0.0000000000
     17789       283  TIP3      OH2            17.3652223375        9.3991853072       81.9114910215  TIP3      147             0.0000000000
     17790       283  TIP3      H1             17.7597694469        8.4863491301       81.9529655773  TIP3      147             0.0000000000
     17791       283  TIP3      H2             18.1299831761        9.9833978097       81.7439694996  TIP3      147             0.0000000000
     17792       284  TIP3      OH2            18.2678195713        6.9544186862       82.0936733616  TIP3      148             0.0000000000
     17793       284  TIP3      H1             17.3369662420        6.6227500466       82.0659395112  TIP3      148             0.0000000000
     17794       284  TIP3      H2             18.7951961677        6.1250585727       82.1722822011  TIP3      148             0.0000000000
     17795       285  TIP3      OH2            15.1058248984        5.2051747879       71.1848308552  TIP3      149             0.0000000000
     17796       285  TIP3      H1             15.3083607821        4.2321801505       71.1427348425  TIP3      149             0.0000000000
     17797       285  TIP3      H2             15.3988601261        5.4939426224       70.3100445207  TIP3      149             0.0000000000
     17798       286  TIP3      OH2            16.9372447329        5.9113145182       75.6578227042  TIP3      150             0.0000000000
     17799       286  TIP3      H1             17.9047922209        6.0614725693       75.7395744053  TIP3      150             0.0000000000
     17800       286  TIP3      H2             16.7293103012        5.9072076179       76.6172702250  TIP3      150             0.0000000000
     17801       287  TIP3      OH2            16.4549684607        6.5332490489       78.2489435781  TIP3      151             0.0000000000
     17802       287  TIP3      H1             15.6659227202        6.8053936350       78.7537821368  TIP3      151             0.0000000000
     17803       287  TIP3      H2             16.9926873382        7.3583915586       78.2238162911  TIP3      151             0.0000000000
     17804       288  TIP3      OH2             0.9396112123        5.2720125990       81.2365276114  TIP3      152             0.0000000000
     17805       288  TIP3      H1              1.5314274561        4.9521805359       81.9639496528  TIP3      152             0.0000000000
     17806       288  TIP3      H2              0.1321922808        4.8371634997       81.5528250032  TIP3      152             0.0000000000
     17807       289  TIP3      OH2            19.0027901334        0.8110454197       84.3312681330  TIP3      153             0.0000000000
     17808       289  TIP3      H1             18.4667604283        0.1712375193       83.8284081713  TIP3      153             0.0000000000
     17809       289  TIP3      H2             19.0511332756        1.5451143281       83.6816407523  TIP3      153             0.0000000000
     17810       290  TIP3      OH2            15.6378098883        2.5717562243       70.8568565530  TIP3      154             0.0000000000
     17811       290  TIP3      H1             16.3889013510        2.4706516016       71.4856296462  TIP3      154             0.0000000000
     17812       290  TIP3      H2             15.4763546427        1.6398291410       70.6251810867  TIP3      154             0.0000000000
     17813       291  TIP3      OH2             1.9742602629        3.1757447525       75.7685160411  TIP3      155             0.0000000000
     17814       291  TIP3      H1              2.4662901551        2.3380997693       75.6967256027  TIP3      155             0.0000000000
     17815       291  TIP3      H2              2.7162711911        3.8035124198       75.9176393063  TIP3      155             0.0000000000
     17816       292  TIP3      OH2             0.8833334228        5.9178594701       77.0808248278  TIP3      156             0.0000000000
     17817       292  TIP3      H1              1.0888063168        5.0855854437       76.6251846454  TIP3      156             0.0000000000
     17818       292  TIP3      H2              0.9943498278        6.5533187667       76.3579808344  TIP3      156             0.0000000000
     17819       293  TIP3      OH2            18.1604314884        2.9216449109       82.4260414198  TIP3      157             0.0000000000
     17820       293  TIP3      H1             17.3283841969        3.2466595415       82.8302459804  TIP3      157             0.0000000000
     17821       293  TIP3      H2             17.8378864906        2.4930032786       81.6214334136  TIP3      157             0.0000000000
     17822       294  TIP3      OH2             0.6793996185        1.6687774715       70.5350958188  TIP3      158             0.0000000000
     17823       294  TIP3      H1             -0.2860828067        1.6786339789       70.7016744785  TIP3      158             0.0000000000
     17824       294  TIP3      H2              0.9552937710        2.4186727440       71.1054222548  TIP3      158             0.0000000000
     17825       295  TIP3      OH2            15.3065719436       17.8295426268       72.4986786822  TIP3      159             0.0000000000
     17826       295  TIP3      H1             15.9475456702       17.6072933148       71.7888373046  TIP3      159             0.0000000000
     17827       295  TIP3      H2             15.8538004534       18.3069928338       73.1418040985  TIP3      159             0.0000000000
     17828       296  TIP3      OH2            -0.0603256388        1.1241344105       78.0525365355  TIP3      160             0.0000000000
     17829       296  TIP3      H1              0.4159124527        1.6244388534       78.7339010778  TIP3      160             0.0000000000
     17830       296  TIP3      H2             -0.2036084040        1.8228164477       77.3913767639  TIP3      160             0.0000000000
     17831       297  TIP3      OH2             2.9641490728       13.9984534532       82.7408853332  TIP3      161             0.0000000000
     17832       297  TIP3      H1              2.0271954576       14.2161231102       82.6822069319  TIP3      161             0.0000000000
     17833       297  TIP3      H2              2.9193748909       13.0262448002       82.7431800016  TIP3      161             0.0000000000
     17834       298  TIP3      OH2             5.4383254971       15.5878791156       79.2029960227  TIP3      162             0.0000000000
     17835       298  TIP3      H1              5.2098250776       16.3200172154       78.5854283043  TIP3      162             0.0000000000
     17836       298  TIP3      H2              6.3796113881       15.4168729020       78.9540936913  TIP3      162             0.0000000000
     17837       299  TIP3      OH2             9.3748792392       16.8379026453       81.9588891845  TIP3      163             0.0000000000
     17838       299  TIP3      H1              9.6494962948       16.4807465020       82.8348335353  TIP3      163             0.0000000000
     17839       299  TIP3      H2             10.2640724760       17.0768893023       81.6151748904  TIP3      163             0.0000000000
     17840       300  TIP3      OH2            11.7596484831       18.3130921692       81.2979611351  TIP3      164             0.0000000000
     17841       300  TIP3      H1             12.4801234454       17.7134293069       81.0521176289  TIP3      164             0.0000000000
     17842       300  TIP3      H2             12.0909420105       18.6732977637       82.1498633523  TIP3      164             0.0000000000
     17843       301  TIP3      OH2            17.3230079458        0.4636622247       80.4289751146  TIP3      165             0.0000000000
     17844       301  TIP3      H1             16.6026496768        1.0392754171       80.1231405926  TIP3      165             0.0000000000
     17845       301  TIP3      H2             17.8506519039        0.4481445523       79.5960043496  TIP3      165             0.0000000000
     17846       302  TIP3      OH2             2.7735860171       18.6956612357       79.0115890299  TIP3      166             0.0000000000
     17847       302  TIP3      H1              1.9394676122       19.0717876811       78.6357328813  TIP3      166             0.0000000000
     17848       302  TIP3      H2              2.7269411168       19.0751377741       79.9019459969  TIP3      166             0.0000000000
     17849       303  TIP3      OH2             5.1019049884       17.8729982005       77.8762926737  TIP3      167             0.0000000000
     17850       303  TIP3      H1              4.2466333868       18.2696926850       78.1650560673  TIP3      167             0.0000000000
     17851       303  TIP3      H2              5.2945733273       18.3964510475       77.0814490113  TIP3      167             0.0000000000
     17852       304  TIP3      OH2             9.9463825218       17.3979765282       77.7760246383  TIP3      168             0.0000000000
     17853       304  TIP3      H1              9.5881156487       17.7382181330       76.9385657808  TIP3      168             0.0000000000
     17854       304  TIP3      H2             10.2514257597       18.2369324315       78.1817609677  TIP3      168             0.0000000000
     17855       305  TIP3      OH2            12.4539693906       16.3535505785       78.6298946249  TIP3      169             0.0000000000
     17856       305  TIP3      H1             11.7259838569       16.7025747554       78.0783290521  TIP3      169             0.0000000000
     17857       305  TIP3      H2             13.1121825643       17.0644559844       78.5108995011  TIP3      169             0.0000000000
     17858       306  TIP3      OH2            14.6623506152       18.1700397751       78.3851922435  TIP3      170             0.0000000000
     17859       306  TIP3      H1             14.8714814845       19.1114862543       78.3221351355  TIP3      170             0.0000000000
     17860       306  TIP3      H2             14.9704701783       17.8486408687       77.5121558403  TIP3      170             0.0000000000
     17861       307  TIP3      OH2             2.6373417832       17.3561054814       75.6074787684  TIP3      171             0.0000000000
     17862       307  TIP3      H1              2.2874971663       16.9085919420       76.3925123119  TIP3      171             0.0000000000
     17863       307  TIP3      H2              3.4675423099       16.8596787064       75.4189494566  TIP3      171             0.0000000000
     17864       308  TIP3      OH2             4.8205866089       16.1263895992       74.4654861238  TIP3      172             0.0000000000
     17865       308  TIP3      H1              4.6422916047       15.1712147712       74.5864816345  TIP3      172             0.0000000000
     17866       308  TIP3      H2              5.6026984920       16.2129376478       75.0497936192  TIP3      172             0.0000000000
     17867       309  TIP3      OH2             7.0688924978       15.9554068674       75.9982779214  TIP3      173             0.0000000000
     17868       309  TIP3      H1              7.2227312995       15.0593255140       75.6287278171  TIP3      173             0.0000000000
     17869       309  TIP3      H2              7.3859972047       15.8632948813       76.9142406481  TIP3      173             0.0000000000
     17870       310  TIP3      OH2            10.6080212348        2.7225526354       74.9043203523  TIP3      174             0.0000000000
     17871       310  TIP3      H1              9.9539351001        2.1787615285       75.3952674286  TIP3      174             0.0000000000
     17872       310  TIP3      H2             11.1879174262        2.0263643293       74.5491969519  TIP3      174             0.0000000000
     17873       311  TIP3      OH2            16.4161404100        0.1733013439       74.5043747063  TIP3      175             0.0000000000
     17874       311  TIP3      H1             16.5545328884        0.8767090046       73.8419618466  TIP3      175             0.0000000000
     17875       311  TIP3      H2             15.5307767523       -0.1790061158       74.3333057876  TIP3      175             0.0000000000
     17876       312  TIP3      OH2            17.6613992357        1.8526369309       72.5163823941  TIP3      176             0.0000000000
     17877       312  TIP3      H1             17.9550568336        0.9641444847       72.2117201882  TIP3      176             0.0000000000
     17878       312  TIP3      H2             18.5235280774        2.2720014384       72.7612151273  TIP3      176             0.0000000000
     17879       313  TIP3      OH2             3.2639981202        0.6664810232       72.1647697970  TIP3      177             0.0000000000
     17880       313  TIP3      H1              2.4214518747        0.7565355253       71.6804089538  TIP3      177             0.0000000000
     17881       313  TIP3      H2              3.8467958456        0.1978054084       71.5232248819  TIP3      177             0.0000000000
     17882       314  TIP3      OH2             2.6290982787        0.9398412268       68.6759298706  TIP3      178             0.0000000000
     17883       314  TIP3      H1              2.5419179574        1.7769774780       68.2044357052  TIP3      178             0.0000000000
     17884       314  TIP3      H2              1.8848364344        0.9730064111       69.3127013029  TIP3      178             0.0000000000
     17885       315  TIP3      OH2             7.4125540899        1.4747279913       72.2586759406  TIP3      179             0.0000000000
     17886       315  TIP3      H1              7.9594977219        0.9698224004       71.6458077014  TIP3      179             0.0000000000
     17887       315  TIP3      H2              7.7430041819        1.1287511971       73.1081122129  TIP3      179             0.0000000000
     17888       316  TIP3      OH2            12.6336412880        0.9233977721       73.2545866229  TIP3      180             0.0000000000
     17889       316  TIP3      H1             13.2314022683        0.3935461742       72.6938052902  TIP3      180             0.0000000000
     17890       316  TIP3      H2             12.3874844133        0.2727716693       73.9556656627  TIP3      180             0.0000000000
     17891       317  TIP3      OH2            13.4928942075        0.2714671579       69.0831980253  TIP3      181             0.0000000000
     17892       317  TIP3      H1             13.2622669653        1.2086456434       68.9535548966  TIP3      181             0.0000000000
     17893       317  TIP3      H2             13.6662819897        0.2210787139       70.0493541643  TIP3      181             0.0000000000
     17894       318  TIP3      OH2            16.9219293210       17.1372845392       70.5195335812  TIP3      182             0.0000000000
     17895       318  TIP3      H1             16.9309012674       16.2692625267       70.0484975165  TIP3      182             0.0000000000
     17896       318  TIP3      H2             16.7104477099       17.7302873714       69.7635719060  TIP3      182             0.0000000000
     17897       319  TIP3      OH2             3.4233771896        1.1492197442       81.8165645629  TIP3      183             0.0000000000
     17898       319  TIP3      H1              2.8065580089        0.3982446444       81.8285290630  TIP3      183             0.0000000000
     17899       319  TIP3      H2              4.0354105323        0.9153357930       82.5368354405  TIP3      183             0.0000000000
     17900       320  TIP3      OH2             5.7338362131       66.1055101945       83.4570563135  TIP3      184             0.0000000000
     17901       320  TIP3      H1              6.5603254933       66.5441415707       83.1671883922  TIP3      184             0.0000000000
     17902       320  TIP3      H2              5.9866328982       65.1714390190       83.4447969876  TIP3      184             0.0000000000
     17903       321  TIP3      OH2            12.1295618366       66.3249501036       83.7961584390  TIP3      185             0.0000000000
     17904       321  TIP3      H1             11.6932684235       66.0998098360       84.6312977759  TIP3      185             0.0000000000
     17905       321  TIP3      H2             12.5475948312       65.4818382633       83.5571143638  TIP3      185             0.0000000000
     17906       322  TIP3      OH2            16.5035980155       15.9950554136       82.2499431778  TIP3      186             0.0000000000
     17907       322  TIP3      H1             15.9966483416       15.8915322762       81.4107870253  TIP3      186             0.0000000000
     17908       322  TIP3      H2             16.2193603154       16.8884657700       82.5163624177  TIP3      186             0.0000000000
     17909       323  TIP3      OH2            31.2353126657       10.0972494974       72.2950739692  TIP3      187             0.0000000000
     17910       323  TIP3      H1             31.3432563708       11.0536533102       72.4463249737  TIP3      187             0.0000000000
     17911       323  TIP3      H2             30.4695287340       10.0950840873       71.7048316588  TIP3      187             0.0000000000
     17912       324  TIP3      OH2            30.0704659890        8.5833201091       75.4378616360  TIP3      188             0.0000000000
     17913       324  TIP3      H1             29.9348993001        8.2579697850       76.3457688996  TIP3      188             0.0000000000
     17914       324  TIP3      H2             29.2293584456        8.4185301958       74.9839964888  TIP3      188             0.0000000000
     17915       325  TIP3      OH2            22.1254001508        8.5449462388       77.1019251443  TIP3      189             0.0000000000
     17916       325  TIP3      H1             21.7991537526        7.8518638024       77.6956282110  TIP3      189             0.0000000000
     17917       325  TIP3      H2             22.7213619909        9.0577432955       77.6816035704  TIP3      189             0.0000000000
     17918       326  TIP3      OH2            33.1808969777       12.1462964629       74.3721162740  TIP3      190             0.0000000000
     17919       326  TIP3      H1             32.9028466021       11.5164745206       75.0529356558  TIP3      190             0.0000000000
     17920       326  TIP3      H2             33.4456103751       12.9113164585       74.9021351319  TIP3      190             0.0000000000
     17921       327  TIP3      OH2            23.3714285961       13.4408119276       75.2828220682  TIP3      191             0.0000000000
     17922       327  TIP3      H1             23.0886582232       12.5228150434       75.0814206697  TIP3      191             0.0000000000
     17923       327  TIP3      H2             24.3460407687       13.2945012892       75.2736569462  TIP3      191             0.0000000000
     17924       328  TIP3      OH2            20.1383685811        6.9482254192       71.0092830662  TIP3      192             0.0000000000
     17925       328  TIP3      H1             19.8343094225        7.6234483216       70.3795308517  TIP3      192             0.0000000000
     17926       328  TIP3      H2             19.3011909329        6.5286239758       71.2584140082  TIP3      192             0.0000000000
     17927       329  TIP3      OH2            19.8468868749        8.8383658784       73.7359727423  TIP3      193             0.0000000000
     17928       329  TIP3      H1             20.2771832123        7.9475424770       73.7370587999  TIP3      193             0.0000000000
     17929       329  TIP3      H2             20.4497911108        9.3123791640       73.1412188259  TIP3      193             0.0000000000
     17930       330  TIP3      OH2            30.5606795973       17.5411222387       74.1951287530  TIP3      194             0.0000000000
     17931       330  TIP3      H1             31.2539747044       16.8783507427       73.9843167820  TIP3      194             0.0000000000
     17932       330  TIP3      H2             30.0036753366       17.0244234175       74.7848041480  TIP3      194             0.0000000000
     17933       331  TIP3      OH2            27.9489445841       12.1132019197       76.8918648660  TIP3      195             0.0000000000
     17934       331  TIP3      H1             28.4017826723       11.7868163969       76.0967616119  TIP3      195             0.0000000000
     17935       331  TIP3      H2             28.7246787356       12.3722420154       77.4312282817  TIP3      195             0.0000000000
     17936       332  TIP3      OH2            36.6128007539        2.7988760925       76.2609139120  TIP3      196             0.0000000000
     17937       332  TIP3      H1             36.8804876868        3.2966681686       77.0595652116  TIP3      196             0.0000000000
     17938       332  TIP3      H2             37.3723505056        2.9879532705       75.6808250945  TIP3      196             0.0000000000
     17939       333  TIP3      OH2            31.7372613612        6.0765669202       76.7282311066  TIP3      197             0.0000000000
     17940       333  TIP3      H1             32.0136405379        5.2157514205       77.0819703448  TIP3      197             0.0000000000
     17941       333  TIP3      H2             31.6995458692        5.8810514861       75.7778989134  TIP3      197             0.0000000000
     17942       334  TIP3      OH2            24.9571443988        3.8780279318       73.3576399713  TIP3      198             0.0000000000
     17943       334  TIP3      H1             24.9421324234        4.7113749819       72.8494492060  TIP3      198             0.0000000000
     17944       334  TIP3      H2             24.4368523533        3.2883074967       72.7671895674  TIP3      198             0.0000000000
     17945       335  TIP3      OH2            32.2058799792        4.1954012135       72.4354119937  TIP3      199             0.0000000000
     17946       335  TIP3      H1             32.7932136782        3.9390341681       73.1741686536  TIP3      199             0.0000000000
     17947       335  TIP3      H2             32.6587556065        4.9769291075       72.0609454374  TIP3      199             0.0000000000
     17948       336  TIP3      OH2            21.0770001167        6.5407811842       74.0546363484  TIP3      200             0.0000000000
     17949       336  TIP3      H1             21.7232161929        6.2880552720       74.7307311986  TIP3      200             0.0000000000
     17950       336  TIP3      H2             21.5267950955        6.2161007518       73.2405836473  TIP3      200             0.0000000000
     17951       337  TIP3      OH2            25.6650843235        8.0761174102       73.7645145944  TIP3      201             0.0000000000
     17952       337  TIP3      H1             26.5495881755        7.7222150931       73.9983212992  TIP3      201             0.0000000000
     17953       337  TIP3      H2             25.4068474936        7.4282010229       73.0682679870  TIP3      201             0.0000000000
     17954       338  TIP3      OH2            37.0109522468        4.3687020023       79.0238273229  TIP3      202             0.0000000000
     17955       338  TIP3      H1             36.5378863725        5.2051082599       78.8126295006  TIP3      202             0.0000000000
     17956       338  TIP3      H2             37.2346119164        4.5182786606       79.9533457229  TIP3      202             0.0000000000
     17957       339  TIP3      OH2            23.8361006106        2.9596236056       77.4720768355  TIP3      203             0.0000000000
     17958       339  TIP3      H1             23.6061837836        3.5779864593       76.7348998832  TIP3      203             0.0000000000
     17959       339  TIP3      H2             22.9997519452        2.9920290054       77.9901091254  TIP3      203             0.0000000000
     17960       340  TIP3      OH2            30.4542977879       12.7737081710       71.4770466834  TIP3      204             0.0000000000
     17961       340  TIP3      H1             30.2780421640       12.7414137472       70.5098832535  TIP3      204             0.0000000000
     17962       340  TIP3      H2             30.5233070677       13.7292568296       71.6099749835  TIP3      204             0.0000000000
     17963       341  TIP3      OH2            25.7455841828       10.7305236181       77.5221752235  TIP3      205             0.0000000000
     17964       341  TIP3      H1             25.1813399402       11.4450993702       77.9062893629  TIP3      205             0.0000000000
     17965       341  TIP3      H2             26.5734439777       11.2378591216       77.3586402545  TIP3      205             0.0000000000
     17966       342  TIP3      OH2            34.1805296642        3.3821651781       74.2335863085  TIP3      206             0.0000000000
     17967       342  TIP3      H1             33.6797047616        3.3465029878       75.0727386778  TIP3      206             0.0000000000
     17968       342  TIP3      H2             35.0102416802        3.7790410019       74.5410259592  TIP3      206             0.0000000000
     17969       343  TIP3      OH2            23.2018524012        4.8220994302       75.5190225873  TIP3      207             0.0000000000
     17970       343  TIP3      H1             23.7609407259        5.5204791788       75.9376960578  TIP3      207             0.0000000000
     17971       343  TIP3      H2             23.7451473774        4.5634496825       74.7449777168  TIP3      207             0.0000000000
     17972       344  TIP3      OH2            24.5537872319       12.7845920254       78.7380588598  TIP3      208             0.0000000000
     17973       344  TIP3      H1             24.2249725206       13.4844021491       78.1566505934  TIP3      208             0.0000000000
     17974       344  TIP3      H2             23.7187946042       12.5606849890       79.2299434279  TIP3      208             0.0000000000
     17975       345  TIP3      OH2            20.3684069452       12.4238031310       68.9533191477  TIP3      209             0.0000000000
     17976       345  TIP3      H1             20.3323136641       12.2644889689       67.9743381264  TIP3      209             0.0000000000
     17977       345  TIP3      H2             20.2677846909       13.3839894214       68.9713536753  TIP3      209             0.0000000000
     17978       346  TIP3      OH2            33.9080019293       14.0969474999       76.2006713042  TIP3      210             0.0000000000
     17979       346  TIP3      H1             32.9885970951       14.1547231213       76.5381268912  TIP3      210             0.0000000000
     17980       346  TIP3      H2             34.0225182498       15.0437301627       75.9747764443  TIP3      210             0.0000000000
     17981       347  TIP3      OH2            34.2881931846        2.3335385869       77.7469282494  TIP3      211             0.0000000000
     17982       347  TIP3      H1             33.4689891623        2.5114492304       77.2364325645  TIP3      211             0.0000000000
     17983       347  TIP3      H2             34.9457532671        2.2867204959       77.0344423361  TIP3      211             0.0000000000
     17984       348  TIP3      OH2            27.5555527609        0.7329678631       74.9492058328  TIP3      212             0.0000000000
     17985       348  TIP3      H1             27.3216710171       -0.2073434515       74.9173355067  TIP3      212             0.0000000000
     17986       348  TIP3      H2             26.8008925874        1.1066842789       75.4488861866  TIP3      212             0.0000000000
     17987       349  TIP3      OH2            32.5452455386       15.9096808201       73.0345775408  TIP3      213             0.0000000000
     17988       349  TIP3      H1             32.8580035819       15.1399103458       72.4958070655  TIP3      213             0.0000000000
     17989       349  TIP3      H2             33.3068928695       16.5217206374       72.8725784199  TIP3      213             0.0000000000
     17990       350  TIP3      OH2            33.6013846102       13.9734593300       71.5798029917  TIP3      214             0.0000000000
     17991       350  TIP3      H1             33.5654559134       13.4179451490       70.7602226712  TIP3      214             0.0000000000
     17992       350  TIP3      H2             33.5283837942       13.2533882436       72.2215641526  TIP3      214             0.0000000000
     17993       351  TIP3      OH2            34.9232777525       12.2450822590       80.1132170794  TIP3      215             0.0000000000
     17994       351  TIP3      H1             35.2261952938       11.5383486568       79.4958106483  TIP3      215             0.0000000000
     17995       351  TIP3      H2             35.2058030260       13.0426957018       79.6274490056  TIP3      215             0.0000000000
     17996       352  TIP3      OH2            29.7464206177        8.9783393793       69.4599077998  TIP3      216             0.0000000000
     17997       352  TIP3      H1             29.0759719443        9.6853925499       69.3607410126  TIP3      216             0.0000000000
     17998       352  TIP3      H2             30.4870131238        9.2858114780       68.9093813256  TIP3      216             0.0000000000
     17999       353  TIP3      OH2            36.9670083904        8.6057906655       78.2236016026  TIP3      217             0.0000000000
     18000       353  TIP3      H1             36.3323838207        9.3545265811       78.1492723966  TIP3      217             0.0000000000
     18001       353  TIP3      H2             37.6583748586        8.9341713093       77.6201315651  TIP3      217             0.0000000000
     18002       354  TIP3      OH2            33.3162804805        9.1525233777       70.5078930793  TIP3      218             0.0000000000
     18003       354  TIP3      H1             32.6578763384        9.4969896707       71.1448166561  TIP3      218             0.0000000000
     18004       354  TIP3      H2             34.0372493644        8.8924307795       71.1134102205  TIP3      218             0.0000000000
     18005       355  TIP3      OH2            33.1801650119        7.8432001700       79.9290310164  TIP3      219             0.0000000000
     18006       355  TIP3      H1             33.3365315127        8.7159719636       80.3307928589  TIP3      219             0.0000000000
     18007       355  TIP3      H2             32.4273580171        8.0521904601       79.3394020364  TIP3      219             0.0000000000
     18008       356  TIP3      OH2            24.7953591078       10.3104230678       72.7512990589  TIP3      220             0.0000000000
     18009       356  TIP3      H1             24.2908446943       10.0119658494       71.9676720666  TIP3      220             0.0000000000
     18010       356  TIP3      H2             25.2033071914        9.4680462922       73.0421750760  TIP3      220             0.0000000000
     18011       357  TIP3      OH2            26.1190327433       13.1169371588       75.1627005532  TIP3      221             0.0000000000
     18012       357  TIP3      H1             26.3761499624       12.7693955944       74.2903831800  TIP3      221             0.0000000000
     18013       357  TIP3      H2             26.7840460528       12.7378375248       75.7763191985  TIP3      221             0.0000000000
     18014       358  TIP3      OH2            24.8782771049        8.6065360623       76.3153860916  TIP3      222             0.0000000000
     18015       358  TIP3      H1             25.1190098394        8.6544315375       75.3630944551  TIP3      222             0.0000000000
     18016       358  TIP3      H2             25.3645874135        9.3662444692       76.7005196088  TIP3      222             0.0000000000
     18017       359  TIP3      OH2            31.5003933878       14.2607523782       77.1941656494  TIP3      223             0.0000000000
     18018       359  TIP3      H1             31.0415786641       14.8305626851       77.8238222689  TIP3      223             0.0000000000
     18019       359  TIP3      H2             31.3216114015       13.3613149994       77.5398672788  TIP3      223             0.0000000000
     18020       360  TIP3      OH2            26.0417234176       13.1103417895       80.9581801364  TIP3      224             0.0000000000
     18021       360  TIP3      H1             25.2967695640       13.6456050259       81.3223133811  TIP3      224             0.0000000000
     18022       360  TIP3      H2             25.7333024317       12.9793049750       80.0341134230  TIP3      224             0.0000000000
     18023       361  TIP3      OH2            32.3805730140        8.5665391604       68.0951435543  TIP3      225             0.0000000000
     18024       361  TIP3      H1             32.7816909532        8.8445325847       68.9544234651  TIP3      225             0.0000000000
     18025       361  TIP3      H2             32.4207418587        9.4225598647       67.6179314909  TIP3      225             0.0000000000
     18026       362  TIP3      OH2            22.7771478279        9.3894122819       79.6691456520  TIP3      226             0.0000000000
     18027       362  TIP3      H1             22.9813535223        9.9913556986       80.4053658171  TIP3      226             0.0000000000
     18028       362  TIP3      H2             21.8733724658        9.1414229035       79.9556913789  TIP3      226             0.0000000000
     18029       363  TIP3      OH2            30.2280513866       15.9706516685       71.7605729632  TIP3      227             0.0000000000
     18030       363  TIP3      H1             31.1149214847       16.0411240108       72.1809689617  TIP3      227             0.0000000000
     18031       363  TIP3      H2             29.6883354226       16.6497500086       72.1929136521  TIP3      227             0.0000000000
     18032       364  TIP3      OH2            24.0673560126       14.7915735849       81.9263477986  TIP3      228             0.0000000000
     18033       364  TIP3      H1             24.0973893221       15.4190980788       81.1710510750  TIP3      228             0.0000000000
     18034       364  TIP3      H2             23.0968733305       14.6494003327       82.0047426170  TIP3      228             0.0000000000
     18035       365  TIP3      OH2            35.8026908261        1.1488697443       68.5001156064  TIP3      229             0.0000000000
     18036       365  TIP3      H1             35.0876414344        1.7553736021       68.2236530650  TIP3      229             0.0000000000
     18037       365  TIP3      H2             36.4239783683        1.2753706691       67.7766983354  TIP3      229             0.0000000000
     18038       366  TIP3      OH2            23.6885916830        9.1669401489       70.4546429949  TIP3      230             0.0000000000
     18039       366  TIP3      H1             23.0675909970        9.6671237930       69.8726758824  TIP3      230             0.0000000000
     18040       366  TIP3      H2             23.2349930128        8.3140515958       70.4438588908  TIP3      230             0.0000000000
     18041       367  TIP3      OH2            19.9522237913       11.3184705129       79.1849474307  TIP3      231             0.0000000000
     18042       367  TIP3      H1             19.3090234196       11.4279000494       78.4659562914  TIP3      231             0.0000000000
     18043       367  TIP3      H2             20.4065564514       10.5212511937       78.8782709515  TIP3      231             0.0000000000
     18044       368  TIP3      OH2            20.4223020946       13.8628704700       75.9224983940  TIP3      232             0.0000000000
     18045       368  TIP3      H1             21.3454221922       13.7060472145       75.6469532628  TIP3      232             0.0000000000
     18046       368  TIP3      H2             20.5353428324       14.4964166958       76.6564411781  TIP3      232             0.0000000000
     18047       369  TIP3      OH2            37.7464787783       14.8340683377       81.6873839758  TIP3      233             0.0000000000
     18048       369  TIP3      H1             37.5756185517       13.8786446117       81.6653987674  TIP3      233             0.0000000000
     18049       369  TIP3      H2             36.8711734287       15.1490126707       82.0166562449  TIP3      233             0.0000000000
     18050       370  TIP3      OH2            28.4472219859       14.3306266024       80.8118105818  TIP3      234             0.0000000000
     18051       370  TIP3      H1             28.6293771395       15.0548580794       81.4400881806  TIP3      234             0.0000000000
     18052       370  TIP3      H2             27.5540939066       14.0134560610       81.0696173418  TIP3      234             0.0000000000
     18053       371  TIP3      OH2            29.1716750802       18.4094560736       69.6473739313  TIP3      235             0.0000000000
     18054       371  TIP3      H1             29.1259620562       18.9667889448       68.8216524121  TIP3      235             0.0000000000
     18055       371  TIP3      H2             29.0315485803       19.1162794343       70.3109291667  TIP3      235             0.0000000000
     18056       372  TIP3      OH2            22.6191046201       17.0251214918       72.3988323432  TIP3      236             0.0000000000
     18057       372  TIP3      H1             23.0005220817       16.6185355688       73.2043766036  TIP3      236             0.0000000000
     18058       372  TIP3      H2             22.0799070626       16.2970405189       72.0246557676  TIP3      236             0.0000000000
     18059       373  TIP3      OH2            32.6433872859       17.5433890834       66.7289993297  TIP3      237             0.0000000000
     18060       373  TIP3      H1             32.3643039214       16.6140211417       66.6961356207  TIP3      237             0.0000000000
     18061       373  TIP3      H2             32.4455328495       17.7925780744       67.6418542414  TIP3      237             0.0000000000
     18062       374  TIP3      OH2            31.8775290232       18.1625089827       69.7599910231  TIP3      238             0.0000000000
     18063       374  TIP3      H1             30.9073827791       18.3090755843       69.7215722204  TIP3      238             0.0000000000
     18064       374  TIP3      H2             31.8668786313       17.2125099756       69.9897312353  TIP3      238             0.0000000000
     18065       375  TIP3      OH2            34.5666888934        6.5538208033       81.9966925576  TIP3      239             0.0000000000
     18066       375  TIP3      H1             34.2649035508        6.9854982913       81.1673238392  TIP3      239             0.0000000000
     18067       375  TIP3      H2             34.3989530297        5.6354024446       81.7695043476  TIP3      239             0.0000000000
     18068       376  TIP3      OH2            22.2303311010       12.6533687984       79.9353967690  TIP3      240             0.0000000000
     18069       376  TIP3      H1             22.2506846096       12.3141398838       80.8608076491  TIP3      240             0.0000000000
     18070       376  TIP3      H2             21.3724585892       12.2911355758       79.6226094785  TIP3      240             0.0000000000
     18071       377  TIP3      OH2            24.9736802672        1.2788736877       75.7607099178  TIP3      241             0.0000000000
     18072       377  TIP3      H1             24.2577484802        1.3401651950       75.0985707914  TIP3      241             0.0000000000
     18073       377  TIP3      H2             24.6422018732        1.8738866756       76.4658300748  TIP3      241             0.0000000000
     18074       378  TIP3      OH2            28.9701390538        1.3511755593       80.1390400095  TIP3      242             0.0000000000
     18075       378  TIP3      H1             29.6403925365        0.8924831291       79.6145344079  TIP3      242             0.0000000000
     18076       378  TIP3      H2             28.1627080889        1.2075160396       79.6053081938  TIP3      242             0.0000000000
     18077       379  TIP3      OH2            32.2660738661        5.2015754708       79.9010204437  TIP3      243             0.0000000000
     18078       379  TIP3      H1             31.9992329715        4.8735321675       80.7962752525  TIP3      243             0.0000000000
     18079       379  TIP3      H2             32.5473069294        6.1202679270       80.0767008975  TIP3      243             0.0000000000
     18080       380  TIP3      OH2            29.1628197387        3.6853127766       66.6955002247  TIP3      244             0.0000000000
     18081       380  TIP3      H1             29.1705419910        3.4700092047       67.6364346444  TIP3      244             0.0000000000
     18082       380  TIP3      H2             30.1092993816        3.8270329506       66.5269712023  TIP3      244             0.0000000000
     18083       381  TIP3      OH2            24.8944323794        6.1516833476       77.2514400600  TIP3      245             0.0000000000
     18084       381  TIP3      H1             24.1164283602        6.0164508308       77.8260120552  TIP3      245             0.0000000000
     18085       381  TIP3      H2             24.7751395735        7.0971266606       76.9828113544  TIP3      245             0.0000000000
     18086       382  TIP3      OH2            24.8969121157        6.2368178130       71.8035320230  TIP3      246             0.0000000000
     18087       382  TIP3      H1             23.9100775540        6.2090236588       71.8029231333  TIP3      246             0.0000000000
     18088       382  TIP3      H2             25.0981636140        5.6767229598       71.0193983765  TIP3      246             0.0000000000
     18089       383  TIP3      OH2            30.5727468788        6.9127724827       71.0031013767  TIP3      247             0.0000000000
     18090       383  TIP3      H1             30.3787640948        7.8028081869       70.6229513677  TIP3      247             0.0000000000
     18091       383  TIP3      H2             31.0661983326        6.4923886169       70.2640458806  TIP3      247             0.0000000000
     18092       384  TIP3      OH2            29.6271038743        6.4570722010       82.6936662614  TIP3      248             0.0000000000
     18093       384  TIP3      H1             28.8883948800        5.8193609427       82.8025912087  TIP3      248             0.0000000000
     18094       384  TIP3      H2             30.4077612467        5.8934441272       82.9130016291  TIP3      248             0.0000000000
     18095       385  TIP3      OH2            31.5152226065        6.7059266510       73.7330334631  TIP3      249             0.0000000000
     18096       385  TIP3      H1             31.2643341813        7.6039447218       73.4552443326  TIP3      249             0.0000000000
     18097       385  TIP3      H2             31.3860600480        6.2221529340       72.9008323014  TIP3      249             0.0000000000
     18098       386  TIP3      OH2            22.3637213480        5.8753140213       78.3865754948  TIP3      250             0.0000000000
     18099       386  TIP3      H1             22.5658467751        6.4739580843       79.1271733285  TIP3      250             0.0000000000
     18100       386  TIP3      H2             21.8347787965        5.1684793109       78.7995177810  TIP3      250             0.0000000000
     18101       387  TIP3      OH2            20.0095405469        3.0122917237       73.0040053324  TIP3      251             0.0000000000
     18102       387  TIP3      H1             20.3402020752        3.3307471923       73.8694360998  TIP3      251             0.0000000000
     18103       387  TIP3      H2             20.7770328016        2.4727821348       72.7215327679  TIP3      251             0.0000000000
     18104       388  TIP3      OH2            30.4549306530        7.8929047917       78.1623455831  TIP3      252             0.0000000000
     18105       388  TIP3      H1             30.9831530197        7.1885818419       77.7081728929  TIP3      252             0.0000000000
     18106       388  TIP3      H2             29.8916737410        7.3492403774       78.7598300103  TIP3      252             0.0000000000
     18107       389  TIP3      OH2            27.7745731356        3.6273129940       72.9469205154  TIP3      253             0.0000000000
     18108       389  TIP3      H1             26.8027544719        3.5923749116       73.0213930081  TIP3      253             0.0000000000
     18109       389  TIP3      H2             28.0205760140        3.4542963480       73.8691115420  TIP3      253             0.0000000000
     18110       390  TIP3      OH2            22.3129204662        5.5747230882       71.8900600103  TIP3      254             0.0000000000
     18111       390  TIP3      H1             21.5064742958        5.8296084182       71.3782880098  TIP3      254             0.0000000000
     18112       390  TIP3      H2             22.4841132641        4.6380645845       71.6225161268  TIP3      254             0.0000000000
     18113       391  TIP3      OH2            25.6997833472        5.4262077150       69.3606233943  TIP3      255             0.0000000000
     18114       391  TIP3      H1             26.6262189087        5.2847326436       69.6499553648  TIP3      255             0.0000000000
     18115       391  TIP3      H2             25.5877518603        6.3786408079       69.3630321513  TIP3      255             0.0000000000
     18116       392  TIP3      OH2            32.2578782979        3.1404894620       76.2038263606  TIP3      256             0.0000000000
     18117       392  TIP3      H1             31.6389862297        3.2900254498       76.9529944636  TIP3      256             0.0000000000
     18118       392  TIP3      H2             31.6267773032        2.7636254521       75.5465012309  TIP3      256             0.0000000000
     18119       393  TIP3      OH2            34.6727573146       18.5389295016       83.1951016288  TIP3      257             0.0000000000
     18120       393  TIP3      H1             35.1782594940       19.0018847962       82.5029520462  TIP3      257             0.0000000000
     18121       393  TIP3      H2             35.2685521197       18.5889533394       83.9618388747  TIP3      257             0.0000000000
     18122       394  TIP3      OH2            22.4906679118       11.1654085211       82.2271665151  TIP3      258             0.0000000000
     18123       394  TIP3      H1             23.2194722633       11.5067143922       82.7915253102  TIP3      258             0.0000000000
     18124       394  TIP3      H2             21.7532966230       11.1006462303       82.8701110600  TIP3      258             0.0000000000
     18125       395  TIP3      OH2            27.8432124334        6.7009623404       74.5687204183  TIP3      259             0.0000000000
     18126       395  TIP3      H1             28.7605177628        6.4480181683       74.3975846818  TIP3      259             0.0000000000
     18127       395  TIP3      H2             27.5294947596        5.9384517436       75.0793298763  TIP3      259             0.0000000000
     18128       396  TIP3      OH2            23.3271848040        3.0954502105       71.3764648392  TIP3      260             0.0000000000
     18129       396  TIP3      H1             22.6171221803        2.4244474783       71.4606530488  TIP3      260             0.0000000000
     18130       396  TIP3      H2             23.9482534388        2.5569977176       70.8317713410  TIP3      260             0.0000000000
     18131       397  TIP3      OH2            27.0455004101        4.6642974932       77.1747249520  TIP3      261             0.0000000000
     18132       397  TIP3      H1             26.2397878204        5.2404624053       77.1722165350  TIP3      261             0.0000000000
     18133       397  TIP3      H2             27.7027203254        5.2650251913       77.5518441434  TIP3      261             0.0000000000
     18134       398  TIP3      OH2            27.8433389999       11.0006541748       69.3919127526  TIP3      262             0.0000000000
     18135       398  TIP3      H1             27.0747979114       10.4784502919       69.0738402990  TIP3      262             0.0000000000
     18136       398  TIP3      H2             27.4541313093       11.4871987616       70.1579983594  TIP3      262             0.0000000000
     18137       399  TIP3      OH2            35.3194556935       10.7162070165       78.0423861780  TIP3      263             0.0000000000
     18138       399  TIP3      H1             35.8510989682       11.2654661933       77.4103581082  TIP3      263             0.0000000000
     18139       399  TIP3      H2             34.4764540380       10.6695878430       77.5576249173  TIP3      263             0.0000000000
     18140       400  TIP3      OH2            28.8871539010       11.7213649434       80.3016875621  TIP3      264             0.0000000000
     18141       400  TIP3      H1             28.7285807293       11.4450351584       81.2129512718  TIP3      264             0.0000000000
     18142       400  TIP3      H2             28.7424715062       12.6873107319       80.3829193717  TIP3      264             0.0000000000
     18143       401  TIP3      OH2            31.8777351781        5.5590903795       69.0336029785  TIP3      265             0.0000000000
     18144       401  TIP3      H1             32.7378185852        5.5013208458       69.4935172673  TIP3      265             0.0000000000
     18145       401  TIP3      H2             32.1230522051        6.1885650308       68.3272401062  TIP3      265             0.0000000000
     18146       402  TIP3      OH2            23.1592573499       10.6458077445       74.9872190386  TIP3      266             0.0000000000
     18147       402  TIP3      H1             23.7881373042       10.5511714300       74.2460186895  TIP3      266             0.0000000000
     18148       402  TIP3      H2             23.3064808781        9.8307998566       75.5018132682  TIP3      266             0.0000000000
     18149       403  TIP3      OH2            29.8005322634       12.6722652809       68.7947070781  TIP3      267             0.0000000000
     18150       403  TIP3      H1             30.0931500677       12.4921152981       67.8870755605  TIP3      267             0.0000000000
     18151       403  TIP3      H2             29.1018526509       12.0021299344       68.9315439699  TIP3      267             0.0000000000
     18152       404  TIP3      OH2            20.1918875773        8.3622056963       80.0620051481  TIP3      268             0.0000000000
     18153       404  TIP3      H1             19.8191579616        7.9814326161       80.8898902381  TIP3      268             0.0000000000
     18154       404  TIP3      H2             19.4348451211        8.2719260497       79.4521378105  TIP3      268             0.0000000000
     18155       405  TIP3      OH2            26.3697145784        8.7819445652       81.7585193606  TIP3      269             0.0000000000
     18156       405  TIP3      H1             25.5040490920        8.3502466624       81.6463799322  TIP3      269             0.0000000000
     18157       405  TIP3      H2             26.6598235255        8.7960479882       80.8130332395  TIP3      269             0.0000000000
     18158       406  TIP3      OH2            31.9116843430       13.7833026534       80.7668093583  TIP3      270             0.0000000000
     18159       406  TIP3      H1             31.2083883781       13.8978866129       80.1099818913  TIP3      270             0.0000000000
     18160       406  TIP3      H2             31.5707978885       14.3523687898       81.4867543325  TIP3      270             0.0000000000
     18161       407  TIP3      OH2            37.5467856028        6.1848834753       68.5559344553  TIP3      271             0.0000000000
     18162       407  TIP3      H1             36.7263494406        6.0612986948       68.0413637629  TIP3      271             0.0000000000
     18163       407  TIP3      H2             37.8159934556        7.0780594913       68.2657117162  TIP3      271             0.0000000000
     18164       408  TIP3      OH2            37.5585525164       12.0262943917       81.5036910756  TIP3      272             0.0000000000
     18165       408  TIP3      H1             36.6065424145       11.9606047280       81.2859434452  TIP3      272             0.0000000000
     18166       408  TIP3      H2             37.9914253653       11.8626592579       80.6352090759  TIP3      272             0.0000000000
     18167       409  TIP3      OH2            35.2155295708       15.1397302343       68.9561360099  TIP3      273             0.0000000000
     18168       409  TIP3      H1             34.4733033765       14.5216040072       69.0917590488  TIP3      273             0.0000000000
     18169       409  TIP3      H2             35.7730035123       14.6547029249       68.3263436646  TIP3      273             0.0000000000
     18170       410  TIP3      OH2            32.8604581726        9.8847384659       76.1978988348  TIP3      274             0.0000000000
     18171       410  TIP3      H1             32.0340466235        9.3850060343       76.0839537621  TIP3      274             0.0000000000
     18172       410  TIP3      H2             33.4957113461        9.3342375691       75.7012042833  TIP3      274             0.0000000000
     18173       411  TIP3      OH2            25.0913997633       14.3496474133       72.1130493895  TIP3      275             0.0000000000
     18174       411  TIP3      H1             25.1704162967       15.2678388299       71.7990747801  TIP3      275             0.0000000000
     18175       411  TIP3      H2             24.1325335613       14.2642726194       72.2088214518  TIP3      275             0.0000000000
     18176       412  TIP3      OH2            26.6060260473       12.0786004999       71.7378086255  TIP3      276             0.0000000000
     18177       412  TIP3      H1             26.2403020656       12.9858796316       71.8279243575  TIP3      276             0.0000000000
     18178       412  TIP3      H2             25.9053346693       11.5292686454       72.1398201075  TIP3      276             0.0000000000
     18179       413  TIP3      OH2            27.1765129103       15.9516634333       78.8881361665  TIP3      277             0.0000000000
     18180       413  TIP3      H1             27.8791363002       16.5791729627       78.6023827081  TIP3      277             0.0000000000
     18181       413  TIP3      H2             27.6463264821       15.4920810862       79.6104325065  TIP3      277             0.0000000000
     18182       414  TIP3      OH2            24.8672928274       17.1991047952       70.9483021464  TIP3      278             0.0000000000
     18183       414  TIP3      H1             24.0716688242       17.2836651236       71.5187980887  TIP3      278             0.0000000000
     18184       414  TIP3      H2             25.4470119872       17.9004586528       71.3288150775  TIP3      278             0.0000000000
     18185       415  TIP3      OH2            30.4766510052       11.8183534349       77.9637699202  TIP3      279             0.0000000000
     18186       415  TIP3      H1             30.0864773707       11.4368448133       78.7789406326  TIP3      279             0.0000000000
     18187       415  TIP3      H2             30.9904076038       11.0799689026       77.6007230501  TIP3      279             0.0000000000
     18188       416  TIP3      OH2            33.7104905489       16.4046930663       80.0866401962  TIP3      280             0.0000000000
     18189       416  TIP3      H1             32.7901987463       16.1321839860       79.9216368137  TIP3      280             0.0000000000
     18190       416  TIP3      H2             33.7948301626       17.1318764867       79.4268087739  TIP3      280             0.0000000000
     18191       417  TIP3      OH2            21.4148411439        3.2129522002       78.8335753164  TIP3      281             0.0000000000
     18192       417  TIP3      H1             20.5766859408        3.5739539638       78.4839544930  TIP3      281             0.0000000000
     18193       417  TIP3      H2             21.1789571864        2.9235783228       79.7281559090  TIP3      281             0.0000000000
     18194       418  TIP3      OH2            33.7083100810       12.3481213075       69.5470340885  TIP3      282             0.0000000000
     18195       418  TIP3      H1             33.1931262354       11.7881394605       68.9392253968  TIP3      282             0.0000000000
     18196       418  TIP3      H2             34.6034839558       11.9529966465       69.4358776292  TIP3      282             0.0000000000
     18197       419  TIP3      OH2            21.3383204566       15.4229050899       78.0391167626  TIP3      283             0.0000000000
     18198       419  TIP3      H1             21.9609050645       14.7016073123       78.2040440744  TIP3      283             0.0000000000
     18199       419  TIP3      H2             21.3185206719       15.8557279273       78.9098078384  TIP3      283             0.0000000000
     18200       420  TIP3      OH2            22.0449868177       10.2023070014       68.3218811747  TIP3      284             0.0000000000
     18201       420  TIP3      H1             21.6316658860       10.9079238344       68.8483247675  TIP3      284             0.0000000000
     18202       420  TIP3      H2             21.6106221675       10.4581728970       67.4819201415  TIP3      284             0.0000000000
     18203       421  TIP3      OH2            30.7550538249        3.4050113490       78.5797902337  TIP3      285             0.0000000000
     18204       421  TIP3      H1             31.3391301191        3.9154989233       79.1727116776  TIP3      285             0.0000000000
     18205       421  TIP3      H2             30.1724458482        3.0029936773       79.2472697222  TIP3      285             0.0000000000
     18206       422  TIP3      OH2            31.0345981976        3.1568663607       70.3137176329  TIP3      286             0.0000000000
     18207       422  TIP3      H1             31.1637603800        3.8646193785       69.6478412621  TIP3      286             0.0000000000
     18208       422  TIP3      H2             31.4754970132        3.6152206531       71.0693010589  TIP3      286             0.0000000000
     18209       423  TIP3      OH2            29.2396319141       16.1013961111       68.1533999273  TIP3      287             0.0000000000
     18210       423  TIP3      H1             29.3544063499       15.5742615529       68.9634156404  TIP3      287             0.0000000000
     18211       423  TIP3      H2             29.2318996165       17.0110203428       68.5250382668  TIP3      287             0.0000000000
     18212       424  TIP3      OH2            28.1813814434        5.1787590417       70.7210940567  TIP3      288             0.0000000000
     18213       424  TIP3      H1             28.8580957249        5.8682356979       70.8950785782  TIP3      288             0.0000000000
     18214       424  TIP3      H2             28.1147988367        4.7195401198       71.5872955347  TIP3      288             0.0000000000
     18215       425  TIP3      OH2            29.1103332152        6.2680979478       79.9291072074  TIP3      289             0.0000000000
     18216       425  TIP3      H1             29.2764859796        6.4033494395       80.8843461915  TIP3      289             0.0000000000
     18217       425  TIP3      H2             29.3727686024        5.3464468775       79.7814530370  TIP3      289             0.0000000000
     18218       426  TIP3      OH2            29.1640578109        1.7142341734       71.5370643407  TIP3      290             0.0000000000
     18219       426  TIP3      H1             28.6158527685        2.3892643975       72.0028466164  TIP3      290             0.0000000000
     18220       426  TIP3      H2             29.8895535889        2.2752808875       71.1696608448  TIP3      290             0.0000000000
     18221       427  TIP3      OH2            25.7177763545       17.0586387938       68.5093921112  TIP3      291             0.0000000000
     18222       427  TIP3      H1             26.6356422190       17.3535925583       68.5477265436  TIP3      291             0.0000000000
     18223       427  TIP3      H2             25.4214979391       17.0822196101       69.4469730443  TIP3      291             0.0000000000
     18224       428  TIP3      OH2            24.7985842848        1.7959807359       69.5749639195  TIP3      292             0.0000000000
     18225       428  TIP3      H1             24.6097345410        2.3386735245       68.7861594131  TIP3      292             0.0000000000
     18226       428  TIP3      H2             25.7724477889        1.7133811055       69.5049805551  TIP3      292             0.0000000000
     18227       429  TIP3      OH2            34.4405611472        3.5293922842       80.2261796820  TIP3      293             0.0000000000
     18228       429  TIP3      H1             33.5665455795        3.8473095622       79.9332805213  TIP3      293             0.0000000000
     18229       429  TIP3      H2             34.8647868216        3.3085795312       79.3719168785  TIP3      293             0.0000000000
     18230       430  TIP3      OH2            33.8941954511        7.5030501164       74.6034905212  TIP3      294             0.0000000000
     18231       430  TIP3      H1             33.0585408450        6.9941695610       74.5960554641  TIP3      294             0.0000000000
     18232       430  TIP3      H2             34.5240767360        6.9026873468       75.0573409048  TIP3      294             0.0000000000
     18233       431  TIP3      OH2            34.3916369992       16.7555320156       76.1823217803  TIP3      295             0.0000000000
     18234       431  TIP3      H1             34.4873726362       17.3841651247       75.4407925611  TIP3      295             0.0000000000
     18235       431  TIP3      H2             35.3288735475       16.6851789612       76.4227363270  TIP3      295             0.0000000000
     18236       432  TIP3      OH2            22.2972528265        0.8229947724       74.9410204349  TIP3      296             0.0000000000
     18237       432  TIP3      H1             21.9720674762        0.2544827514       74.2229246995  TIP3      296             0.0000000000
     18238       432  TIP3      H2             22.2241498296        0.1649107343       75.6675442882  TIP3      296             0.0000000000
     18239       433  TIP3      OH2            21.1861821527       14.8381872004       71.7777601106  TIP3      297             0.0000000000
     18240       433  TIP3      H1             20.5363679976       15.2404898787       72.3854681499  TIP3      297             0.0000000000
     18241       433  TIP3      H2             20.8781239779       15.1577475808       70.9089029074  TIP3      297             0.0000000000
     18242       434  TIP3      OH2            19.9947567883       17.7359570177       82.5805199166  TIP3      298             0.0000000000
     18243       434  TIP3      H1             20.6373007513       17.5515589873       83.3061382489  TIP3      298             0.0000000000
     18244       434  TIP3      H2             19.6191823967       16.8436398402       82.5032570326  TIP3      298             0.0000000000
     18245       435  TIP3      OH2            24.8869892840       16.3703032103       84.0050763998  TIP3      299             0.0000000000
     18246       435  TIP3      H1             25.7633444604       15.9491740549       84.1001612350  TIP3      299             0.0000000000
     18247       435  TIP3      H2             24.5428589914       15.8946171455       83.2239507203  TIP3      299             0.0000000000
     18248       436  TIP3      OH2            28.8293511487       15.4994647120       65.5468000533  TIP3      300             0.0000000000
     18249       436  TIP3      H1             28.8334541095       15.9074064892       66.4387490875  TIP3      300             0.0000000000
     18250       436  TIP3      H2             29.4794215297       14.8020857197       65.6914617237  TIP3      300             0.0000000000
     18251       437  TIP3      OH2            31.2768449863       15.2628684536       82.9767617348  TIP3      301             0.0000000000
     18252       437  TIP3      H1             30.9853262912       14.3254303908       83.1225783446  TIP3      301             0.0000000000
     18253       437  TIP3      H2             32.1566278885       15.2282782251       83.4068349347  TIP3      301             0.0000000000
     18254       438  TIP3      OH2            20.1100751680       11.3377268515       83.6615944216  TIP3      302             0.0000000000
     18255       438  TIP3      H1             19.7704232336       10.4275682336       83.7464145748  TIP3      302             0.0000000000
     18256       438  TIP3      H2             19.6808237353       11.6242326978       82.8229453625  TIP3      302             0.0000000000
     18257       439  TIP3      OH2            26.9059112236       11.2526269464       82.7513805138  TIP3      303             0.0000000000
     18258       439  TIP3      H1             26.6055131807       11.9196604535       82.0839789338  TIP3      303             0.0000000000
     18259       439  TIP3      H2             26.5441804311       10.4218348270       82.3611166972  TIP3      303             0.0000000000
     18260       440  TIP3      OH2            32.5248020589       11.1484419856       80.6504007240  TIP3      304             0.0000000000
     18261       440  TIP3      H1             33.3963846276       11.6029649146       80.5770342678  TIP3      304             0.0000000000
     18262       440  TIP3      H2             31.9930860477       11.9713297904       80.7120099853  TIP3      304             0.0000000000
     18263       441  TIP3      OH2            20.8138709631        8.4361095017       83.2681950602  TIP3      305             0.0000000000
     18264       441  TIP3      H1             21.2397520657        7.5731513499       83.2890800126  TIP3      305             0.0000000000
     18265       441  TIP3      H2             21.3348245560        8.9257157769       83.9311602747  TIP3      305             0.0000000000
     18266       442  TIP3      OH2            25.7927382694        9.4425541711       68.6885258376  TIP3      306             0.0000000000
     18267       442  TIP3      H1             24.9134481197        9.5400244248       69.1154682245  TIP3      306             0.0000000000
     18268       442  TIP3      H2             26.1390536510        8.6861366439       69.1706360208  TIP3      306             0.0000000000
     18269       443  TIP3      OH2            24.6711220772        7.4931192187       79.7064496190  TIP3      307             0.0000000000
     18270       443  TIP3      H1             24.0117009279        8.2127432142       79.7057639736  TIP3      307             0.0000000000
     18271       443  TIP3      H2             25.4096992037        7.8740884965       79.1916675578  TIP3      307             0.0000000000
     18272       444  TIP3      OH2            30.6064279173       10.1401953877       83.7236892004  TIP3      308             0.0000000000
     18273       444  TIP3      H1             31.0532994943        9.8093467428       82.9157505990  TIP3      308             0.0000000000
     18274       444  TIP3      H2             31.3727060919       10.1410524443       84.3314525572  TIP3      308             0.0000000000
     18275       445  TIP3      OH2            25.4698614559        5.3722902658       81.0465560415  TIP3      309             0.0000000000
     18276       445  TIP3      H1             25.5093646862        4.5636595236       80.4773765411  TIP3      309             0.0000000000
     18277       445  TIP3      H2             25.1073099857        6.0343008951       80.4077045374  TIP3      309             0.0000000000
     18278       446  TIP3      OH2            25.8534196702        3.4102759504       79.1579098130  TIP3      310             0.0000000000
     18279       446  TIP3      H1             26.5009471365        3.7579945973       78.5022792192  TIP3      310             0.0000000000
     18280       446  TIP3      H2             25.0663802244        3.3381277942       78.5763263295  TIP3      310             0.0000000000
     18281       447  TIP3      OH2            27.1163246161        9.0072471933       79.1891384156  TIP3      311             0.0000000000
     18282       447  TIP3      H1             28.0209476629        8.9666134738       78.8516016498  TIP3      311             0.0000000000
     18283       447  TIP3      H2             26.7009140260        9.6912350446       78.6257615158  TIP3      311             0.0000000000
     18284       448  TIP3      OH2            32.0953487947        6.0621483633       83.7965840825  TIP3      312             0.0000000000
     18285       448  TIP3      H1             32.6341223007        5.3567100739       84.1815478484  TIP3      312             0.0000000000
     18286       448  TIP3      H2             32.7719538658        6.6028024406       83.3661059940  TIP3      312             0.0000000000
     18287       449  TIP3      OH2            33.2884800857        9.6132031636       82.7841437207  TIP3      313             0.0000000000
     18288       449  TIP3      H1             33.0130470491       10.1002665501       81.9780184626  TIP3      313             0.0000000000
     18289       449  TIP3      H2             34.1669504063        9.2740435144       82.5197324531  TIP3      313             0.0000000000
     18290       450  TIP3      OH2            24.1156736661        6.0074346355       83.4310702006  TIP3      314             0.0000000000
     18291       450  TIP3      H1             23.2488677431        5.5501532186       83.4118504884  TIP3      314             0.0000000000
     18292       450  TIP3      H2             24.4226219883        5.8403355878       82.5128535353  TIP3      314             0.0000000000
     18293       451  TIP3      OH2            26.3437652885        0.7662228811       79.3710134311  TIP3      315             0.0000000000
     18294       451  TIP3      H1             26.1279685229        1.7168366114       79.2263090111  TIP3      315             0.0000000000
     18295       451  TIP3      H2             25.4990103463        0.3324656287       79.1661560068  TIP3      315             0.0000000000
     18296       452  TIP3      OH2            27.3206857116        5.1356039505       83.1498435835  TIP3      316             0.0000000000
     18297       452  TIP3      H1             26.6972785067        4.6076731153       83.6840275894  TIP3      316             0.0000000000
     18298       452  TIP3      H2             26.8443500228        5.1454693126       82.2913265602  TIP3      316             0.0000000000
     18299       453  TIP3      OH2            31.0573027617        3.9695070918       82.0914879729  TIP3      317             0.0000000000
     18300       453  TIP3      H1             30.3078865627        3.5990061825       82.5808500692  TIP3      317             0.0000000000
     18301       453  TIP3      H2             31.7943453892        3.5317163353       82.5741370328  TIP3      317             0.0000000000
     18302       454  TIP3      OH2            32.6929028902        2.4334098253       83.5728424131  TIP3      318             0.0000000000
     18303       454  TIP3      H1             32.2999770798        1.5417449741       83.5239003320  TIP3      318             0.0000000000
     18304       454  TIP3      H2             32.4616364077        2.6538399072       84.5087935652  TIP3      318             0.0000000000
     18305       455  TIP3      OH2            22.0566103142        3.9159082387       83.2872028118  TIP3      319             0.0000000000
     18306       455  TIP3      H1             22.2202308451        3.1825056029       82.6666965856  TIP3      319             0.0000000000
     18307       455  TIP3      H2             21.9363595833        3.3758041096       84.1069495366  TIP3      319             0.0000000000
     18308       456  TIP3      OH2            27.1810084905        1.0237856268       82.1153298047  TIP3      320             0.0000000000
     18309       456  TIP3      H1             26.9654571668        0.2564684134       81.5693892147  TIP3      320             0.0000000000
     18310       456  TIP3      H2             27.8454741596        1.4382218868       81.5273141850  TIP3      320             0.0000000000
     18311       457  TIP3      OH2            26.7768668702        1.8062470866       84.6306156825  TIP3      321             0.0000000000
     18312       457  TIP3      H1             26.3751434692        1.4026737706       83.8371439663  TIP3      321             0.0000000000
     18313       457  TIP3      H2             26.3247413429        2.6773134009       84.6282098331  TIP3      321             0.0000000000
     18314       458  TIP3      OH2            18.9047581796       18.2257516541       71.9155267666  TIP3      322             0.0000000000
     18315       458  TIP3      H1             18.2203543105       17.6728203076       71.4729538792  TIP3      322             0.0000000000
     18316       458  TIP3      H2             19.2487430731       17.6190990127       72.6041005467  TIP3      322             0.0000000000
     18317       459  TIP3      OH2            19.7817614484       16.4581079847       73.8227868635  TIP3      323             0.0000000000
     18318       459  TIP3      H1             19.3560815464       15.7165095486       74.2808108538  TIP3      323             0.0000000000
     18319       459  TIP3      H2             20.5025341046       16.6986778660       74.4502057048  TIP3      323             0.0000000000
     18320       460  TIP3      OH2            37.1792532138       17.6495006968       76.4259403902  TIP3      324             0.0000000000
     18321       460  TIP3      H1             37.4351675938       17.3896861571       77.3259175744  TIP3      324             0.0000000000
     18322       460  TIP3      H2             37.5601792762       18.5311409434       76.3866030984  TIP3      324             0.0000000000
     18323       461  TIP3      OH2            36.8251370990       16.9961664268       79.3108471209  TIP3      325             0.0000000000
     18324       461  TIP3      H1             36.4775845347       16.1532971534       78.9389090393  TIP3      325             0.0000000000
     18325       461  TIP3      H2             37.1217938326       16.6927945963       80.1828099590  TIP3      325             0.0000000000
     18326       462  TIP3      OH2            35.3689727719       12.3428142561       84.1713170158  TIP3      326             0.0000000000
     18327       462  TIP3      H1             34.6398736609       12.5759666203       84.7885180321  TIP3      326             0.0000000000
     18328       462  TIP3      H2             35.8243099104       13.2113170332       84.1264368347  TIP3      326             0.0000000000
     18329       463  TIP3      OH2            36.1710845309       11.2457192040       69.6982164957  TIP3      327             0.0000000000
     18330       463  TIP3      H1             37.0641868305       11.6545537665       69.6816040386  TIP3      327             0.0000000000
     18331       463  TIP3      H2             36.3279735189       10.4593810295       70.2459163679  TIP3      327             0.0000000000
     18332       464  TIP3      OH2            37.3518453457        9.2877158035       71.3881460164  TIP3      328             0.0000000000
     18333       464  TIP3      H1             36.5235487093        8.8713736775       71.7096929355  TIP3      328             0.0000000000
     18334       464  TIP3      H2             37.7764951065        9.5182986310       72.2268664505  TIP3      328             0.0000000000
     18335       465  TIP3      OH2            36.9029832478       11.8150000930       76.2864980174  TIP3      329             0.0000000000
     18336       465  TIP3      H1             37.5674068752       11.1141501174       76.1182382152  TIP3      329             0.0000000000
     18337       465  TIP3      H2             37.3509745406       12.6150223369       75.9315578087  TIP3      329             0.0000000000
     18338       466  TIP3      OH2            35.4661245004       14.6986267725       78.6541749712  TIP3      330             0.0000000000
     18339       466  TIP3      H1             34.7145493852       15.0369601519       79.1734468515  TIP3      330             0.0000000000
     18340       466  TIP3      H2             35.0212319637       14.4205662392       77.8273711596  TIP3      330             0.0000000000
     18341       467  TIP3      OH2            35.0241947367        7.9324019195       72.1164918524  TIP3      331             0.0000000000
     18342       467  TIP3      H1             34.3305805975        7.2455975533       72.0556856607  TIP3      331             0.0000000000
     18343       467  TIP3      H2             34.9495537958        8.0647147420       73.0866129249  TIP3      331             0.0000000000
     18344       468  TIP3      OH2            19.9859217888        9.8261773738       76.3063330420  TIP3      332             0.0000000000
     18345       468  TIP3      H1             19.8448961730        9.4974869436       75.3848259857  TIP3      332             0.0000000000
     18346       468  TIP3      H2             20.9203386920        9.5337216312       76.4411668518  TIP3      332             0.0000000000
     18347       469  TIP3      OH2            36.2179240843        9.2744031224       81.8914592230  TIP3      333             0.0000000000
     18348       469  TIP3      H1             36.6333708833        8.3838920178       82.0240689698  TIP3      333             0.0000000000
     18349       469  TIP3      H2             36.9823345688        9.8353910555       81.6615585252  TIP3      333             0.0000000000
     18350       470  TIP3      OH2            37.2615958979        6.7703336705       82.3002997316  TIP3      334             0.0000000000
     18351       470  TIP3      H1             36.3932496020        6.3195042040       82.2352619502  TIP3      334             0.0000000000
     18352       470  TIP3      H2             37.9205738204        6.0347529683       82.2646448584  TIP3      334             0.0000000000
     18353       471  TIP3      OH2            34.0589837818        5.6487025258       70.9022806125  TIP3      335             0.0000000000
     18354       471  TIP3      H1             34.5403516414        4.8028074554       70.7178170552  TIP3      335             0.0000000000
     18355       471  TIP3      H2             34.7800982848        6.2657281603       70.7056724191  TIP3      335             0.0000000000
     18356       472  TIP3      OH2            35.5528992322        5.8429606360       75.9237184861  TIP3      336             0.0000000000
     18357       472  TIP3      H1             36.5230470286        5.9454010052       76.0231057294  TIP3      336             0.0000000000
     18358       472  TIP3      H2             35.3312327793        5.6848470638       76.8541470031  TIP3      336             0.0000000000
     18359       473  TIP3      OH2            35.3486459887        6.5462136479       78.6056387272  TIP3      337             0.0000000000
     18360       473  TIP3      H1             34.4820513727        6.9984856847       78.6540974145  TIP3      337             0.0000000000
     18361       473  TIP3      H2             35.9484793526        7.3203437141       78.4439430751  TIP3      337             0.0000000000
     18362       474  TIP3      OH2            19.8606668376        4.8962942549       82.1503001031  TIP3      338             0.0000000000
     18363       474  TIP3      H1             20.6813877268        4.6086497782       82.5951319701  TIP3      338             0.0000000000
     18364       474  TIP3      H2             19.3198739790        4.0776023835       82.2055109633  TIP3      338             0.0000000000
     18365       475  TIP3      OH2            37.9294567503        1.0184349314       84.2782813348  TIP3      339             0.0000000000
     18366       475  TIP3      H1             37.8965627542        0.3234351623       83.6042497497  TIP3      339             0.0000000000
     18367       475  TIP3      H2             37.7221314915        1.7982625781       83.7192612100  TIP3      339             0.0000000000
     18368       476  TIP3      OH2            35.6518756778        3.6272295876       70.3746276863  TIP3      340             0.0000000000
     18369       476  TIP3      H1             35.8472248565        3.0894536893       71.1707177117  TIP3      340             0.0000000000
     18370       476  TIP3      H2             35.3134112158        2.9443596659       69.7692422461  TIP3      340             0.0000000000
     18371       477  TIP3      OH2            21.0614946226        3.1731582802       75.5543074470  TIP3      341             0.0000000000
     18372       477  TIP3      H1             21.5215654283        2.3177392369       75.3845033406  TIP3      341             0.0000000000
     18373       477  TIP3      H2             21.8054137141        3.8037208490       75.6269870685  TIP3      341             0.0000000000
     18374       478  TIP3      OH2            19.4758894887        6.0904778226       76.2825337471  TIP3      342             0.0000000000
     18375       478  TIP3      H1             19.9206427196        5.6624529671       75.5263970306  TIP3      342             0.0000000000
     18376       478  TIP3      H2             19.9960727224        6.9001308600       76.3720166644  TIP3      342             0.0000000000
     18377       479  TIP3      OH2            36.9512388322        2.8365765070       82.4549882598  TIP3      343             0.0000000000
     18378       479  TIP3      H1             36.0996304203        3.0926837204       82.8608016946  TIP3      343             0.0000000000
     18379       479  TIP3      H2             36.6307051663        2.3259652636       81.6766452059  TIP3      343             0.0000000000
     18380       480  TIP3      OH2            19.4394383246        2.2986298136       69.8656089794  TIP3      344             0.0000000000
     18381       480  TIP3      H1             19.2536110685        2.2972358086       70.8199118139  TIP3      344             0.0000000000
     18382       480  TIP3      H2             19.9186174698        3.1261547098       69.7486572780  TIP3      344             0.0000000000
     18383       481  TIP3      OH2            34.4149727873       17.7049095688       72.4746683340  TIP3      345             0.0000000000
     18384       481  TIP3      H1             34.9805007561       17.6261217316       71.6888597959  TIP3      345             0.0000000000
     18385       481  TIP3      H2             34.7969896111       18.4399719481       72.9859246917  TIP3      345             0.0000000000
     18386       482  TIP3      OH2            18.9145929864        1.0619902497       78.3575802393  TIP3      346             0.0000000000
     18387       482  TIP3      H1             19.8645531699        1.1686103217       78.5066072596  TIP3      346             0.0000000000
     18388       482  TIP3      H2             18.7263681600        1.7549449779       77.6933927044  TIP3      346             0.0000000000
     18389       483  TIP3      OH2            21.4206173683       14.3537941206       82.4914880627  TIP3      347             0.0000000000
     18390       483  TIP3      H1             20.4896857841       14.5890462704       82.3418046355  TIP3      347             0.0000000000
     18391       483  TIP3      H2             21.4233054048       14.1013496125       83.4256988292  TIP3      347             0.0000000000
     18392       484  TIP3      OH2            24.5117938701       16.1867484647       79.6469464573  TIP3      348             0.0000000000
     18393       484  TIP3      H1             24.2828363451       16.9118056730       79.0293622325  TIP3      348             0.0000000000
     18394       484  TIP3      H2             25.4430327912       16.0188905994       79.3786312407  TIP3      348             0.0000000000
     18395       485  TIP3      OH2            28.5483148403       16.9427256412       81.7840354507  TIP3      349             0.0000000000
     18396       485  TIP3      H1             28.7377377296       16.7364647298       82.7249048533  TIP3      349             0.0000000000
     18397       485  TIP3      H2             29.3905193404       17.3943066825       81.5406509754  TIP3      349             0.0000000000
     18398       486  TIP3      OH2            30.6738822572       18.5407567451       81.2979760607  TIP3      350             0.0000000000
     18399       486  TIP3      H1             31.4281116528       18.0186084091       80.9859737251  TIP3      350             0.0000000000
     18400       486  TIP3      H2             31.0094901867       18.8643363127       82.1622666693  TIP3      350             0.0000000000
     18401       487  TIP3      OH2            36.0307576915        0.8881646439       80.6720567173  TIP3      351             0.0000000000
     18402       487  TIP3      H1             35.3048952180        1.2595671337       80.1509358195  TIP3      351             0.0000000000
     18403       487  TIP3      H2             36.6544874038        0.6568337592       79.9479149187  TIP3      351             0.0000000000
     18404       488  TIP3      OH2            21.9269464240       18.8572200571       78.8869683854  TIP3      352             0.0000000000
     18405       488  TIP3      H1             21.2038754629       19.4553403509       78.5914420042  TIP3      352             0.0000000000
     18406       488  TIP3      H2             21.7909834870       18.9049942559       79.8427106172  TIP3      352             0.0000000000
     18407       489  TIP3      OH2            24.2077743097       18.1655938477       77.8257653526  TIP3      353             0.0000000000
     18408       489  TIP3      H1             23.2551830625       18.3517543819       78.0214888519  TIP3      353             0.0000000000
     18409       489  TIP3      H2             24.3865019731       18.8801201973       77.1789606752  TIP3      353             0.0000000000
     18410       490  TIP3      OH2            28.7712267580       17.8059936643       77.7344780208  TIP3      354             0.0000000000
     18411       490  TIP3      H1             27.9011630372       18.2300885831       77.6012231886  TIP3      354             0.0000000000
     18412       490  TIP3      H2             29.2520967867       18.5844112011       78.0953585255  TIP3      354             0.0000000000
     18413       491  TIP3      OH2            31.1784403148       16.7756185747       78.6701936192  TIP3      355             0.0000000000
     18414       491  TIP3      H1             30.4744219591       17.0640276189       78.0576543497  TIP3      355             0.0000000000
     18415       491  TIP3      H2             31.8881052531       17.4119219801       78.4504286426  TIP3      355             0.0000000000
     18416       492  TIP3      OH2            33.4942862532       18.3886773189       78.3612376187  TIP3      356             0.0000000000
     18417       492  TIP3      H1             33.5809607217       19.3633293745       78.3772776408  TIP3      356             0.0000000000
     18418       492  TIP3      H2             33.7978155522       18.1949437680       77.4562468761  TIP3      356             0.0000000000
     18419       493  TIP3      OH2            21.4508201472       16.9983079086       75.8712519868  TIP3      357             0.0000000000
     18420       493  TIP3      H1             21.3036686181       16.5326677024       76.7239178540  TIP3      357             0.0000000000
     18421       493  TIP3      H2             22.3879373793       16.7591350813       75.6763927391  TIP3      357             0.0000000000
     18422       494  TIP3      OH2            23.7851240996       16.1661005789       74.7324564555  TIP3      358             0.0000000000
     18423       494  TIP3      H1             23.7035718132       15.1990853011       74.8797657418  TIP3      358             0.0000000000
     18424       494  TIP3      H2             24.6270019533       16.3212055183       75.2142296163  TIP3      358             0.0000000000
     18425       495  TIP3      OH2            26.0626506425       16.1861863269       76.1214991539  TIP3      359             0.0000000000
     18426       495  TIP3      H1             26.5061387246       15.3351236891       75.9537712741  TIP3      359             0.0000000000
     18427       495  TIP3      H2             26.2229612183       16.3195068846       77.0732999283  TIP3      359             0.0000000000
     18428       496  TIP3      OH2            29.8612138797        2.3437097911       74.8235803077  TIP3      360             0.0000000000
     18429       496  TIP3      H1             29.0999827323        1.8114148144       75.1280759106  TIP3      360             0.0000000000
     18430       496  TIP3      H2             30.1150857890        1.8964882981       73.9996138313  TIP3      360             0.0000000000
     18431       497  TIP3      OH2            35.4758278792        0.2758116422       75.2917547296  TIP3      361             0.0000000000
     18432       497  TIP3      H1             35.9925350027        1.0924786122       75.2066864608  TIP3      361             0.0000000000
     18433       497  TIP3      H2             35.6959502333       -0.0065290142       76.1856789706  TIP3      361             0.0000000000
     18434       498  TIP3      OH2            36.4427589277        2.1314622637       72.6924993997  TIP3      362             0.0000000000
     18435       498  TIP3      H1             37.0289460411        1.6474106038       72.0816234821  TIP3      362             0.0000000000
     18436       498  TIP3      H2             37.0645623147        2.7866388325       73.0818004987  TIP3      362             0.0000000000
     18437       499  TIP3      OH2            21.6219431276        1.2118557822       71.9478730213  TIP3      363             0.0000000000
     18438       499  TIP3      H1             20.7867349980        0.7518924550       72.1284395879  TIP3      363             0.0000000000
     18439       499  TIP3      H2             22.1928395142        0.4321042099       71.8138250570  TIP3      363             0.0000000000
     18440       500  TIP3      OH2            20.0264106602        0.0221705850       67.7936155005  TIP3      364             0.0000000000
     18441       500  TIP3      H1             20.6451747496        0.4008968952       67.1464576083  TIP3      364             0.0000000000
     18442       500  TIP3      H2             19.9585241574        0.7044581028       68.4849118547  TIP3      364             0.0000000000
     18443       501  TIP3      OH2            25.6607758705        0.3157652898       72.4041728738  TIP3      365             0.0000000000
     18444       501  TIP3      H1             26.5320664681        0.7138020106       72.3164153554  TIP3      365             0.0000000000
     18445       501  TIP3      H2             25.8726468852       -0.5087376971       72.8773743070  TIP3      365             0.0000000000
     18446       502  TIP3      OH2            31.5640398955        0.7309328097       73.2687966016  TIP3      366             0.0000000000
     18447       502  TIP3      H1             30.7781216027        0.5781990312       72.7173548216  TIP3      366             0.0000000000
     18448       502  TIP3      H2             31.3493009522        0.2154421037       74.0781736746  TIP3      366             0.0000000000
     18449       503  TIP3      OH2            33.3304713536        1.5977051486       70.5210881266  TIP3      367             0.0000000000
     18450       503  TIP3      H1             32.5233854928        2.0765021582       70.2517433074  TIP3      367             0.0000000000
     18451       503  TIP3      H2             33.0454445840        0.6680781963       70.5047266924  TIP3      367             0.0000000000
     18452       504  TIP3      OH2            20.2155435759       16.8522124794       69.8857179013  TIP3      368             0.0000000000
     18453       504  TIP3      H1             20.1413330522       16.7859984268       68.9129189554  TIP3      368             0.0000000000
     18454       504  TIP3      H2             19.6772571076       17.6432859896       70.0332743865  TIP3      368             0.0000000000
     18455       505  TIP3      OH2            27.6255219471        1.9648956019       69.2661175506  TIP3      369             0.0000000000
     18456       505  TIP3      H1             28.2907090561        1.4528845768       69.7644883682  TIP3      369             0.0000000000
     18457       505  TIP3      H2             27.7580958255        2.8229095240       69.6981537618  TIP3      369             0.0000000000
     18458       506  TIP3      OH2            35.7962524717       17.5277576176       70.1582708476  TIP3      370             0.0000000000
     18459       506  TIP3      H1             35.4694480928       16.6608834137       69.7790991612  TIP3      370             0.0000000000
     18460       506  TIP3      H2             36.6993830228       17.5091659635       69.7929437159  TIP3      370             0.0000000000
     18461       507  TIP3      OH2            21.1958198927        1.2907892830       82.0779459312  TIP3      371             0.0000000000
     18462       507  TIP3      H1             20.8695001418        0.5777224911       81.4998898418  TIP3      371             0.0000000000
     18463       507  TIP3      H2             22.0393821541        0.9219570712       82.4156605912  TIP3      371             0.0000000000
     18464       508  TIP3      OH2            23.6297700289       66.6909910158       82.9759412125  TIP3      372             0.0000000000
     18465       508  TIP3      H1             24.5555605760       66.7407695194       83.2399809121  TIP3      372             0.0000000000
     18466       508  TIP3      H2             23.3899578949       65.7717591529       83.2053210027  TIP3      372             0.0000000000
     18467       509  TIP3      OH2            22.2224882865       17.4193044385       66.4612158829  TIP3      373             0.0000000000
     18468       509  TIP3      H1             21.3871998188       17.9073596419       66.3213200245  TIP3      373             0.0000000000
     18469       509  TIP3      H2             22.7651640171       18.1347526521       66.1119963487  TIP3      373             0.0000000000
     18470       510  TIP3      OH2            31.0003060516       66.4766474021       83.5393177556  TIP3      374             0.0000000000
     18471       510  TIP3      H1             31.3752102640       65.7802600046       84.1038572891  TIP3      374             0.0000000000
     18472       510  TIP3      H2             31.2738263961       66.1328520588       82.6651757811  TIP3      374             0.0000000000
     18473       511  TIP3      OH2            35.4281503632       16.0190913999       82.1016024379  TIP3      375             0.0000000000
     18474       511  TIP3      H1             34.7596679169       16.0217755996       81.3754206553  TIP3      375             0.0000000000
     18475       511  TIP3      H2             35.3803009685       16.9396378999       82.4083676028  TIP3      375             0.0000000000
     18476       512  TIP3      OH2            49.8851787495        9.5556126731       72.5041423988  TIP3      376             0.0000000000
     18477       512  TIP3      H1             49.7373605451       10.5038565131       72.6888683950  TIP3      376             0.0000000000
     18478       512  TIP3      H2             49.3333951753        9.4652949417       71.6922491583  TIP3      376             0.0000000000
     18479       513  TIP3      OH2            48.6436222242        8.7637195538       76.1510732541  TIP3      377             0.0000000000
     18480       513  TIP3      H1             48.9555350055        8.2410976514       76.9167178515  TIP3      377             0.0000000000
     18481       513  TIP3      H2             48.2713240903        8.0796026243       75.5619766534  TIP3      377             0.0000000000
     18482       514  TIP3      OH2            40.8646537069        8.3900545295       77.2031754323  TIP3      378             0.0000000000
     18483       514  TIP3      H1             40.7633020319        7.5017099003       77.6071937109  TIP3      378             0.0000000000
     18484       514  TIP3      H2             41.4813472394        8.7913281180       77.8475786433  TIP3      378             0.0000000000
     18485       515  TIP3      OH2            52.0147564133       11.8669592069       74.2977907300  TIP3      379             0.0000000000
     18486       515  TIP3      H1             51.6751140028       11.2178817655       74.9210899691  TIP3      379             0.0000000000
     18487       515  TIP3      H2             52.4900784640       12.4694416108       74.8926508273  TIP3      379             0.0000000000
     18488       516  TIP3      OH2            42.0233085348       13.6026696146       75.4641850046  TIP3      380             0.0000000000
     18489       516  TIP3      H1             41.7356633396       12.6720706292       75.3652157026  TIP3      380             0.0000000000
     18490       516  TIP3      H2             42.9920951461       13.4413089838       75.5374795840  TIP3      380             0.0000000000
     18491       517  TIP3      OH2            38.3415502340        6.3037220697       71.2613950869  TIP3      381             0.0000000000
     18492       517  TIP3      H1             38.1487930209        7.2310689870       71.4594727981  TIP3      381             0.0000000000
     18493       517  TIP3      H2             37.7394155516        6.1267525792       70.5182892865  TIP3      381             0.0000000000
     18494       518  TIP3      OH2            38.8725778008        8.7809598910       73.7846734958  TIP3      382             0.0000000000
     18495       518  TIP3      H1             39.3134148560        7.9218610915       74.0044241647  TIP3      382             0.0000000000
     18496       518  TIP3      H2             39.4944232785        9.1685766645       73.1545220721  TIP3      382             0.0000000000
     18497       519  TIP3      OH2            49.2635825099       17.1737691732       73.8128198866  TIP3      383             0.0000000000
     18498       519  TIP3      H1             50.0235438073       16.6473770884       73.4865775267  TIP3      383             0.0000000000
     18499       519  TIP3      H2             49.0854155622       16.6562388934       74.6134299672  TIP3      383             0.0000000000
     18500       520  TIP3      OH2            46.5885853249       11.9297026688       76.8961680774  TIP3      384             0.0000000000
     18501       520  TIP3      H1             46.8570944256       11.3893344486       76.1384085869  TIP3      384             0.0000000000
     18502       520  TIP3      H2             47.4657459622       12.2818617890       77.1523206861  TIP3      384             0.0000000000
     18503       521  TIP3      OH2            55.2413117600        3.0068943279       76.9659019745  TIP3      385             0.0000000000
     18504       521  TIP3      H1             55.5625926457        3.7575391677       77.5083886689  TIP3      385             0.0000000000
     18505       521  TIP3      H2             55.8486486651        2.9645854095       76.2087619331  TIP3      385             0.0000000000
     18506       522  TIP3      OH2            50.7624476381        5.9265555862       76.5333608609  TIP3      386             0.0000000000
     18507       522  TIP3      H1             51.2023541621        5.1086177338       76.8204132109  TIP3      386             0.0000000000
     18508       522  TIP3      H2             50.5380619879        5.7013607095       75.6020960975  TIP3      386             0.0000000000
     18509       523  TIP3      OH2            43.1451396624        3.8561228755       73.6138352304  TIP3      387             0.0000000000
     18510       523  TIP3      H1             43.3252873292        4.5553684905       72.9514916194  TIP3      387             0.0000000000
     18511       523  TIP3      H2             42.7629312668        3.1680208044       73.0272171793  TIP3      387             0.0000000000
     18512       524  TIP3      OH2            51.4794747232        3.7737650407       72.3684301338  TIP3      388             0.0000000000
     18513       524  TIP3      H1             51.7963021774        3.7003411379       73.2900194010  TIP3      388             0.0000000000
     18514       524  TIP3      H2             51.8245382187        4.6444935473       72.1179216044  TIP3      388             0.0000000000
     18515       525  TIP3      OH2            40.1387833426        6.5091122798       74.3722310358  TIP3      389             0.0000000000
     18516       525  TIP3      H1             40.8041073058        6.1291518634       74.9779076456  TIP3      389             0.0000000000
     18517       525  TIP3      H2             40.4108100149        6.1767281733       73.4992370427  TIP3      389             0.0000000000
     18518       526  TIP3      OH2            44.7765909182        7.7128487590       73.9177501660  TIP3      390             0.0000000000
     18519       526  TIP3      H1             45.5865650893        7.4281003247       74.3786664144  TIP3      390             0.0000000000
     18520       526  TIP3      H2             44.6954088601        7.0014705879       73.2547236863  TIP3      390             0.0000000000
     18521       527  TIP3      OH2            55.9344604427        4.5650783760       79.2531523611  TIP3      391             0.0000000000
     18522       527  TIP3      H1             55.3478827627        5.2599962258       78.8746387120  TIP3      391             0.0000000000
     18523       527  TIP3      H2             55.6517637841        4.5494934432       80.1786693872  TIP3      391             0.0000000000
     18524       528  TIP3      OH2            42.4079510451        2.6308216319       77.8065334450  TIP3      392             0.0000000000
     18525       528  TIP3      H1             42.0663335692        3.2358344579       77.1158692020  TIP3      392             0.0000000000
     18526       528  TIP3      H2             41.6362137340        2.6899067437       78.4035720666  TIP3      392             0.0000000000
     18527       529  TIP3      OH2            49.1284833759       12.2761885157       71.6411021667  TIP3      393             0.0000000000
     18528       529  TIP3      H1             49.1370171961       12.4910795807       70.6938295402  TIP3      393             0.0000000000
     18529       529  TIP3      H2             48.9122467051       13.1606950315       72.0145427972  TIP3      393             0.0000000000
     18530       530  TIP3      OH2            44.4634034410       10.5455819058       77.8873121294  TIP3      394             0.0000000000
     18531       530  TIP3      H1             43.8783719316       11.2775050110       78.1651485381  TIP3      394             0.0000000000
     18532       530  TIP3      H2             45.2266666875       11.0711110892       77.5610997534  TIP3      394             0.0000000000
     18533       531  TIP3      OH2            52.9277952866        3.9420992645       74.6701772963  TIP3      395             0.0000000000
     18534       531  TIP3      H1             53.0412591350        3.0386737137       74.9987434009  TIP3      395             0.0000000000
     18535       531  TIP3      H2             53.3929042123        4.4579439773       75.3590938495  TIP3      395             0.0000000000
     18536       532  TIP3      OH2            41.8925879600        4.7256433479       75.8341381689  TIP3      396             0.0000000000
     18537       532  TIP3      H1             42.4812266059        5.3413871685       76.3474226385  TIP3      396             0.0000000000
     18538       532  TIP3      H2             42.4719276205        4.4564379790       75.0818040784  TIP3      396             0.0000000000
     18539       533  TIP3      OH2            43.1678954130       12.6937245232       78.7683563023  TIP3      397             0.0000000000
     18540       533  TIP3      H1             42.9234159431       13.3040215991       78.0579315688  TIP3      397             0.0000000000
     18541       533  TIP3      H2             42.3243649841       12.6381945324       79.2879956833  TIP3      397             0.0000000000
     18542       534  TIP3      OH2            38.6921346719       12.3693347881       69.4632191305  TIP3      398             0.0000000000
     18543       534  TIP3      H1             38.7148070333       11.8884542651       68.5971971604  TIP3      398             0.0000000000
     18544       534  TIP3      H2             39.4723980994       12.0209167491       69.9095100697  TIP3      398             0.0000000000
     18545       535  TIP3      OH2            52.7996552505       13.6619761936       76.3305154708  TIP3      399             0.0000000000
     18546       535  TIP3      H1             51.8877428386       13.9881430773       76.5209477372  TIP3      399             0.0000000000
     18547       535  TIP3      H2             53.1064918033       14.3902110843       75.7784891324  TIP3      399             0.0000000000
     18548       536  TIP3      OH2            52.8458126231        2.6740294303       78.1086036434  TIP3      400             0.0000000000
     18549       536  TIP3      H1             52.1111212394        2.7456190965       77.4642230828  TIP3      400             0.0000000000
     18550       536  TIP3      H2             53.6293604330        2.7356728519       77.5203766535  TIP3      400             0.0000000000
     18551       537  TIP3      OH2            46.3559590849        0.7410305253       75.0679493406  TIP3      401             0.0000000000
     18552       537  TIP3      H1             46.1773552869       -0.1729955408       75.3164438605  TIP3      401             0.0000000000
     18553       537  TIP3      H2             45.4975515206        1.1816830787       75.2775159338  TIP3      401             0.0000000000
     18554       538  TIP3      OH2            51.1984152099       15.3892939254       73.0021321469  TIP3      402             0.0000000000
     18555       538  TIP3      H1             51.4454275255       14.6091365055       72.4499923725  TIP3      402             0.0000000000
     18556       538  TIP3      H2             52.0106227519       15.9429153148       72.8663639969  TIP3      402             0.0000000000
     18557       539  TIP3      OH2            52.0255184381       13.2823321324       71.4619937431  TIP3      403             0.0000000000
     18558       539  TIP3      H1             52.0500868331       12.6777167487       70.6870083183  TIP3      403             0.0000000000
     18559       539  TIP3      H2             51.9989770073       12.6228880996       72.1778509547  TIP3      403             0.0000000000
     18560       540  TIP3      OH2            53.6248442891       12.1554165745       80.0705325235  TIP3      404             0.0000000000
     18561       540  TIP3      H1             53.7249765980       11.5370663677       79.3094675748  TIP3      404             0.0000000000
     18562       540  TIP3      H2             53.8671771749       13.0044875459       79.6474967891  TIP3      404             0.0000000000
     18563       541  TIP3      OH2            48.5943913765        9.1788410950       70.1657639047  TIP3      405             0.0000000000
     18564       541  TIP3      H1             48.0596082409        9.9353828772       69.8696356164  TIP3      405             0.0000000000
     18565       541  TIP3      H2             49.2677074642        9.1702055090       69.4705815052  TIP3      405             0.0000000000
     18566       542  TIP3      OH2            48.9836408543        6.9869427939       67.1532823167  TIP3      406             0.0000000000
     18567       542  TIP3      H1             49.6850464625        7.6012410231       67.4040478651  TIP3      406             0.0000000000
     18568       542  TIP3      H2             49.2893591060        6.5694352298       66.3373560256  TIP3      406             0.0000000000
     18569       543  TIP3      OH2            55.5740750074        8.7051408448       78.2274720631  TIP3      407             0.0000000000
     18570       543  TIP3      H1             54.9971615453        9.4964229373       78.1178052120  TIP3      407             0.0000000000
     18571       543  TIP3      H2             56.2948029309        8.9099689161       77.5954744155  TIP3      407             0.0000000000
     18572       544  TIP3      OH2            51.8691926461        8.5925626300       71.0302144926  TIP3      408             0.0000000000
     18573       544  TIP3      H1             51.2390752045        8.9860086770       71.6766872067  TIP3      408             0.0000000000
     18574       544  TIP3      H2             52.6812750649        8.5148137825       71.5628832947  TIP3      408             0.0000000000
     18575       545  TIP3      OH2            51.9371618510        7.6911858892       79.8711440290  TIP3      409             0.0000000000
     18576       545  TIP3      H1             52.0062742262        8.5902736823       80.2277190613  TIP3      409             0.0000000000
     18577       545  TIP3      H2             51.1415373598        7.8003594926       79.2975952997  TIP3      409             0.0000000000
     18578       546  TIP3      OH2            42.9703593179        9.7969645981       72.8010229855  TIP3      410             0.0000000000
     18579       546  TIP3      H1             42.7235193583        9.5386122338       71.8875169963  TIP3      410             0.0000000000
     18580       546  TIP3      H2             43.6353315612        9.1131183252       73.0254937687  TIP3      410             0.0000000000
     18581       547  TIP3      OH2            44.6801845479       13.2023575171       75.5150392130  TIP3      411             0.0000000000
     18582       547  TIP3      H1             44.7872782216       12.9206267594       74.5897049636  TIP3      411             0.0000000000
     18583       547  TIP3      H2             45.4137248304       12.7610943125       76.0010173451  TIP3      411             0.0000000000
     18584       548  TIP3      OH2            43.6945335381        8.5176434886       76.2629469291  TIP3      412             0.0000000000
     18585       548  TIP3      H1             44.0069923989        8.5650555869       75.3327749646  TIP3      412             0.0000000000
     18586       548  TIP3      H2             43.9162992743        9.4034089485       76.6293774250  TIP3      412             0.0000000000
     18587       549  TIP3      OH2            50.3405970390       14.3575687423       77.1348989281  TIP3      413             0.0000000000
     18588       549  TIP3      H1             49.8499455032       14.9523553178       77.7194568038  TIP3      413             0.0000000000
     18589       549  TIP3      H2             50.0379119762       13.4768711889       77.4448903481  TIP3      413             0.0000000000
     18590       550  TIP3      OH2            44.8272242810       13.1709610145       80.8106157406  TIP3      414             0.0000000000
     18591       550  TIP3      H1             44.1361919364       13.6970090764       81.2781496248  TIP3      414             0.0000000000
     18592       550  TIP3      H2             44.3372727141       12.9856666920       79.9767117784  TIP3      414             0.0000000000
     18593       551  TIP3      OH2            51.0452334336        8.5206598826       68.4630359869  TIP3      415             0.0000000000
     18594       551  TIP3      H1             51.3486498062        8.4688486905       69.4038010180  TIP3      415             0.0000000000
     18595       551  TIP3      H2             51.4148933675        9.3816721751       68.1882852958  TIP3      415             0.0000000000
     18596       552  TIP3      OH2            41.7927346544        9.3350252883       79.6754043699  TIP3      416             0.0000000000
     18597       552  TIP3      H1             42.2530409907        9.8966995497       80.3173156768  TIP3      416             0.0000000000
     18598       552  TIP3      H2             40.9896305848        9.1411069359       80.1872958864  TIP3      416             0.0000000000
     18599       553  TIP3      OH2            48.7332793762       14.8805605992       72.1328272196  TIP3      417             0.0000000000
     18600       553  TIP3      H1             49.6621132299       15.0453764247       72.4198192081  TIP3      417             0.0000000000
     18601       553  TIP3      H2             48.3195054201       15.7563006001       72.1725752983  TIP3      417             0.0000000000
     18602       554  TIP3      OH2            42.9308985842       14.8300148863       81.7981742098  TIP3      418             0.0000000000
     18603       554  TIP3      H1             42.7689065784       15.2513304635       80.9220614337  TIP3      418             0.0000000000
     18604       554  TIP3      H2             42.0101504129       14.6425317610       82.0933617487  TIP3      418             0.0000000000
     18605       555  TIP3      OH2            54.5681806674        0.2715229442       68.6022361630  TIP3      419             0.0000000000
     18606       555  TIP3      H1             53.5971845003        0.3728985227       68.6171368700  TIP3      419             0.0000000000
     18607       555  TIP3      H2             54.8059508579        0.9000261025       67.8847986893  TIP3      419             0.0000000000
     18608       556  TIP3      OH2            42.6149610028        8.7598483353       70.2955742732  TIP3      420             0.0000000000
     18609       556  TIP3      H1             42.2809278922        9.5357897021       69.7768874044  TIP3      420             0.0000000000
     18610       556  TIP3      H2             41.9005966882        8.1230842452       70.1715707349  TIP3      420             0.0000000000
     18611       557  TIP3      OH2            56.4089867829       14.4858376148       67.4545281171  TIP3      421             0.0000000000
     18612       557  TIP3      H1             56.4428023995       15.3766683058       67.0451216344  TIP3      421             0.0000000000
     18613       557  TIP3      H2             56.4372048773       13.8825068813       66.6933821195  TIP3      421             0.0000000000
     18614       558  TIP3      OH2            38.6772706729       11.5922231284       79.0820046330  TIP3      422             0.0000000000
     18615       558  TIP3      H1             38.2744884562       11.6849330655       78.2103371314  TIP3      422             0.0000000000
     18616       558  TIP3      H2             38.9953057557       10.6762894434       79.0344325046  TIP3      422             0.0000000000
     18617       559  TIP3      OH2            38.7306632176       13.8434996006       75.8949611247  TIP3      423             0.0000000000
     18618       559  TIP3      H1             39.6545249300       13.6811306367       75.6526539416  TIP3      423             0.0000000000
     18619       559  TIP3      H2             38.8134710191       14.6316468770       76.4603518870  TIP3      423             0.0000000000
     18620       560  TIP3      OH2            56.5149618490       14.3657891833       81.7901042188  TIP3      424             0.0000000000
     18621       560  TIP3      H1             56.3141292224       13.4559691336       81.5113583755  TIP3      424             0.0000000000
     18622       560  TIP3      H2             55.6358935183       14.6284256742       82.1550227961  TIP3      424             0.0000000000
     18623       561  TIP3      OH2            47.2942176111       14.1899141689       80.5393499855  TIP3      425             0.0000000000
     18624       561  TIP3      H1             47.5776911561       14.7485321842       81.2811823635  TIP3      425             0.0000000000
     18625       561  TIP3      H2             46.3964180112       13.8976163767       80.8143358424  TIP3      425             0.0000000000
     18626       562  TIP3      OH2            47.5399396798       17.8806835672       70.2042357959  TIP3      426             0.0000000000
     18627       562  TIP3      H1             47.8131978443       18.1200382839       69.2920375471  TIP3      426             0.0000000000
     18628       562  TIP3      H2             47.8980121659       18.6555452763       70.6667857401  TIP3      426             0.0000000000
     18629       563  TIP3      OH2            41.4481204811       16.9011898791       72.3275542320  TIP3      427             0.0000000000
     18630       563  TIP3      H1             41.7109137451       16.5741356005       73.2179550720  TIP3      427             0.0000000000
     18631       563  TIP3      H2             40.7095848051       16.2860276254       72.1300922575  TIP3      427             0.0000000000
     18632       564  TIP3      OH2            50.7554062926       16.4148152058       67.1024062231  TIP3      428             0.0000000000
     18633       564  TIP3      H1             50.6576457960       15.4877744595       66.8118449130  TIP3      428             0.0000000000
     18634       564  TIP3      H2             51.7099423977       16.4043510195       67.2599495606  TIP3      428             0.0000000000
     18635       565  TIP3      OH2            50.7497874926       17.0055149346       70.2726117398  TIP3      429             0.0000000000
     18636       565  TIP3      H1             50.0212244860       17.0974879796       70.8931427389  TIP3      429             0.0000000000
     18637       565  TIP3      H2             50.9431860044       16.0530376824       70.2968947661  TIP3      429             0.0000000000
     18638       566  TIP3      OH2            53.4921946214        6.3711312068       81.8335027602  TIP3      430             0.0000000000
     18639       566  TIP3      H1             53.0135376069        6.8847194887       81.1483648559  TIP3      430             0.0000000000
     18640       566  TIP3      H2             53.4442929577        5.4728363120       81.4654924193  TIP3      430             0.0000000000
     18641       567  TIP3      OH2            40.9055928708       12.6836377095       80.1857175559  TIP3      431             0.0000000000
     18642       567  TIP3      H1             40.9749923534       12.2345255040       81.0593326061  TIP3      431             0.0000000000
     18643       567  TIP3      H2             40.0448672247       12.3548775233       79.8509592696  TIP3      431             0.0000000000
     18644       568  TIP3      OH2            43.9423300865        1.4808479440       75.7804562971  TIP3      432             0.0000000000
     18645       568  TIP3      H1             43.1261134924        1.3472505158       75.2465923769  TIP3      432             0.0000000000
     18646       568  TIP3      H2             43.5714492350        1.9621827926       76.5451010000  TIP3      432             0.0000000000
     18647       569  TIP3      OH2            48.0116960720        0.8423883045       80.1429156910  TIP3      433             0.0000000000
     18648       569  TIP3      H1             48.7537747331        0.3918669126       79.7272870191  TIP3      433             0.0000000000
     18649       569  TIP3      H2             47.4422576654        1.0138619507       79.3784955878  TIP3      433             0.0000000000
     18650       570  TIP3      OH2            50.7573727081        5.0134842165       80.4563793565  TIP3      434             0.0000000000
     18651       570  TIP3      H1             50.1959553777        4.7542186549       81.2390789985  TIP3      434             0.0000000000
     18652       570  TIP3      H2             50.7943731914        5.9821865778       80.5204378917  TIP3      434             0.0000000000
     18653       571  TIP3      OH2            43.4242747666        6.1609922128       77.4507011208  TIP3      435             0.0000000000
     18654       571  TIP3      H1             43.0391146785        6.3531924524       78.3247062176  TIP3      435             0.0000000000
     18655       571  TIP3      H2             43.4176635774        7.0723972307       77.0603515707  TIP3      435             0.0000000000
     18656       572  TIP3      OH2            43.7482986128        6.0576186238       71.9041330301  TIP3      436             0.0000000000
     18657       572  TIP3      H1             42.8038996659        6.2724887204       71.8186928560  TIP3      436             0.0000000000
     18658       572  TIP3      H2             44.0931002333        6.4303301413       71.0850311618  TIP3      436             0.0000000000
     18659       573  TIP3      OH2            49.3079449714        6.3883155978       70.7310108585  TIP3      437             0.0000000000
     18660       573  TIP3      H1             49.1037227645        7.3301278368       70.5448201302  TIP3      437             0.0000000000
     18661       573  TIP3      H2             49.9285379300        6.1175288383       70.0367299964  TIP3      437             0.0000000000
     18662       574  TIP3      OH2            48.3435521926        7.0090139281       82.1157483175  TIP3      438             0.0000000000
     18663       574  TIP3      H1             47.6684512210        6.3601883453       82.4122414167  TIP3      438             0.0000000000
     18664       574  TIP3      H2             49.0720995684        6.8063078212       82.7369300758  TIP3      438             0.0000000000
     18665       575  TIP3      OH2            50.1085064350        6.2307737166       73.6993721491  TIP3      439             0.0000000000
     18666       575  TIP3      H1             49.9294557270        7.1648680279       73.4931739760  TIP3      439             0.0000000000
     18667       575  TIP3      H2             49.9982950842        5.8581349425       72.8105189884  TIP3      439             0.0000000000
     18668       576  TIP3      OH2            40.8275398103        6.0376149874       78.6973157525  TIP3      440             0.0000000000
     18669       576  TIP3      H1             41.0315969424        6.2621054532       79.6097830205  TIP3      440             0.0000000000
     18670       576  TIP3      H2             40.5030126796        5.1181139223       78.7579030805  TIP3      440             0.0000000000
     18671       577  TIP3      OH2            38.4722039027        3.7362325860       73.6811861036  TIP3      441             0.0000000000
     18672       577  TIP3      H1             39.2186077219        3.7254084370       74.3133039574  TIP3      441             0.0000000000
     18673       577  TIP3      H2             38.7798055373        4.2859321419       72.9436209280  TIP3      441             0.0000000000
     18674       578  TIP3      OH2            39.4624163707        4.1769476907       68.8852858442  TIP3      442             0.0000000000
     18675       578  TIP3      H1             39.8732738679        4.4043614348       68.0440086982  TIP3      442             0.0000000000
     18676       578  TIP3      H2             38.7080344730        4.7997757158       68.9296779952  TIP3      442             0.0000000000
     18677       579  TIP3      OH2            49.7083482963        7.7353179658       78.2941168326  TIP3      443             0.0000000000
     18678       579  TIP3      H1             50.1185441192        6.9808214035       77.8021961670  TIP3      443             0.0000000000
     18679       579  TIP3      H2             48.9494946029        7.2958085020       78.7570442424  TIP3      443             0.0000000000
     18680       580  TIP3      OH2            46.2255931247        3.8917738533       73.3540791827  TIP3      444             0.0000000000
     18681       580  TIP3      H1             45.2507663103        3.8766591651       73.3271179316  TIP3      444             0.0000000000
     18682       580  TIP3      H2             46.4011675900        3.2980224919       74.0936218778  TIP3      444             0.0000000000
     18683       581  TIP3      OH2            41.0012840201        5.9646107304       71.5974678037  TIP3      445             0.0000000000
     18684       581  TIP3      H1             40.1033384906        6.0972355215       71.2199760373  TIP3      445             0.0000000000
     18685       581  TIP3      H2             41.1083872589        5.0087946654       71.4644718310  TIP3      445             0.0000000000
     18686       582  TIP3      OH2            50.6282573165        3.1108964123       76.4735781338  TIP3      446             0.0000000000
     18687       582  TIP3      H1             49.9244083798        3.4428885647       77.0623034252  TIP3      446             0.0000000000
     18688       582  TIP3      H2             50.0809777443        2.6863495839       75.7776301337  TIP3      446             0.0000000000
     18689       583  TIP3      OH2            53.4864696471       18.5882552580       83.0547881174  TIP3      447             0.0000000000
     18690       583  TIP3      H1             53.9188656781       18.9353266014       82.2568458380  TIP3      447             0.0000000000
     18691       583  TIP3      H2             54.1337658912       18.8171522419       83.7445386058  TIP3      447             0.0000000000
     18692       584  TIP3      OH2            41.3349381320       11.1895276278       82.4935276580  TIP3      448             0.0000000000
     18693       584  TIP3      H1             42.0117745447       11.2311133932       83.2037144341  TIP3      448             0.0000000000
     18694       584  TIP3      H2             40.5203589729       11.0458822581       83.0252402395  TIP3      448             0.0000000000
     18695       585  TIP3      OH2            47.5160156956        6.5216177142       74.9130904548  TIP3      449             0.0000000000
     18696       585  TIP3      H1             48.1774645954        6.0135148663       74.4230445342  TIP3      449             0.0000000000
     18697       585  TIP3      H2             47.1161202134        5.8146242683       75.4350306791  TIP3      449             0.0000000000
     18698       586  TIP3      OH2            42.2245352863        2.8866410564       71.2817314262  TIP3      450             0.0000000000
     18699       586  TIP3      H1             41.5778073548        2.1922205612       71.5035746669  TIP3      450             0.0000000000
     18700       586  TIP3      H2             43.0173767259        2.3366575264       71.1246823380  TIP3      450             0.0000000000
     18701       587  TIP3      OH2            45.6375891792        4.7545372122       77.1685847210  TIP3      451             0.0000000000
     18702       587  TIP3      H1             44.8644619707        5.3703903005       77.1999162356  TIP3      451             0.0000000000
     18703       587  TIP3      H2             46.2673674608        5.1759466562       77.7738219934  TIP3      451             0.0000000000
     18704       588  TIP3      OH2            46.3808768445       11.5962830860       69.6356275851  TIP3      452             0.0000000000
     18705       588  TIP3      H1             45.9988492275       10.7370192867       69.3681645713  TIP3      452             0.0000000000
     18706       588  TIP3      H2             46.1425216537       11.6269508856       70.5953142832  TIP3      452             0.0000000000
     18707       589  TIP3      OH2            54.0127615917       10.8581229212       77.8216920049  TIP3      453             0.0000000000
     18708       589  TIP3      H1             54.5187156978       11.5202967833       77.2872511966  TIP3      453             0.0000000000
     18709       589  TIP3      H2             53.3985802257       10.5342744246       77.1321044994  TIP3      453             0.0000000000
     18710       590  TIP3      OH2            47.4674098094       11.2600196093       79.9464624170  TIP3      454             0.0000000000
     18711       590  TIP3      H1             47.8523765908       11.1965608570       80.8288363634  TIP3      454             0.0000000000
     18712       590  TIP3      H2             47.1334148328       12.1728113536       79.9173199561  TIP3      454             0.0000000000
     18713       591  TIP3      OH2            51.3943051822        5.3696455005       69.0478119908  TIP3      455             0.0000000000
     18714       591  TIP3      H1             51.9773558849        5.6843233671       69.7650474231  TIP3      455             0.0000000000
     18715       591  TIP3      H2             51.2776045844        6.1613837188       68.4988056785  TIP3      455             0.0000000000
     18716       592  TIP3      OH2            41.8303737811       10.6904279366       75.2010025751  TIP3      456             0.0000000000
     18717       592  TIP3      H1             42.2176444514       10.5008360508       74.3220683896  TIP3      456             0.0000000000
     18718       592  TIP3      H2             41.8170725646        9.8086420427       75.6117612887  TIP3      456             0.0000000000
     18719       593  TIP3      OH2            48.4222765830       12.8060137738       68.5057339507  TIP3      457             0.0000000000
     18720       593  TIP3      H1             48.0737919659       13.1537552581       67.6689137453  TIP3      457             0.0000000000
     18721       593  TIP3      H2             47.6241360852       12.3719084817       68.8704761518  TIP3      457             0.0000000000
     18722       594  TIP3      OH2            38.8347334581        8.6996872834       80.4426978067  TIP3      458             0.0000000000
     18723       594  TIP3      H1             38.7441645333        8.0665980291       81.1763095787  TIP3      458             0.0000000000
     18724       594  TIP3      H2             38.1289670010        8.4022991973       79.8436715642  TIP3      458             0.0000000000
     18725       595  TIP3      OH2            45.2967981648        8.6675327496       81.7636363918  TIP3      459             0.0000000000
     18726       595  TIP3      H1             44.9717102536        7.7859641921       81.5248002832  TIP3      459             0.0000000000
     18727       595  TIP3      H2             45.8927766032        8.8237508902       81.0063122799  TIP3      459             0.0000000000
     18728       596  TIP3      OH2            50.6288234443       13.8357241560       80.7655238553  TIP3      460             0.0000000000
     18729       596  TIP3      H1             49.9477134991       14.1622621063       80.1587719439  TIP3      460             0.0000000000
     18730       596  TIP3      H2             50.3284395284       14.2195663735       81.6101684060  TIP3      460             0.0000000000
     18731       597  TIP3      OH2            55.5496080733        6.5103045575       68.7175521259  TIP3      461             0.0000000000
     18732       597  TIP3      H1             56.1944543850        6.3621243393       68.0084731798  TIP3      461             0.0000000000
     18733       597  TIP3      H2             55.5821714927        7.4817858254       68.7382457540  TIP3      461             0.0000000000
     18734       598  TIP3      OH2            56.2122249537       11.6859974851       81.2323732732  TIP3      462             0.0000000000
     18735       598  TIP3      H1             55.3466534967       11.7497473758       80.7770584762  TIP3      462             0.0000000000
     18736       598  TIP3      H2             56.8404205874       11.5966401386       80.4761705342  TIP3      462             0.0000000000
     18737       599  TIP3      OH2            54.2160760767       14.1985449503       69.2271403976  TIP3      463             0.0000000000
     18738       599  TIP3      H1             53.8346279816       13.3197681076       69.0968490572  TIP3      463             0.0000000000
     18739       599  TIP3      H2             54.9495478847       14.1773793799       68.5899730280  TIP3      463             0.0000000000
     18740       600  TIP3      OH2            51.8717439563        9.6236028527       76.2150144674  TIP3      464             0.0000000000
     18741       600  TIP3      H1             50.9489642369        9.3298863535       76.1591862509  TIP3      464             0.0000000000
     18742       600  TIP3      H2             52.2916046280        9.0129250507       75.5780562684  TIP3      464             0.0000000000
     18743       601  TIP3      OH2            44.0642524336       13.5736860403       72.8479779370  TIP3      465             0.0000000000
     18744       601  TIP3      H1             44.5837326436       14.1637483740       72.2887650062  TIP3      465             0.0000000000
     18745       601  TIP3      H2             43.1516186167       13.8057978985       72.6144986519  TIP3      465             0.0000000000
     18746       602  TIP3      OH2            45.5489634320       11.4816822224       72.0964433430  TIP3      466             0.0000000000
     18747       602  TIP3      H1             44.9126918332       12.1792068171       72.3546319996  TIP3      466             0.0000000000
     18748       602  TIP3      H2             45.2617404829       10.7371899542       72.6335004296  TIP3      466             0.0000000000
     18749       603  TIP3      OH2            45.9618376098       15.9991301572       78.8547945073  TIP3      467             0.0000000000
     18750       603  TIP3      H1             46.6428113819       16.5918136764       78.4963419545  TIP3      467             0.0000000000
     18751       603  TIP3      H2             46.4704884780       15.5003111956       79.5228909119  TIP3      467             0.0000000000
     18752       604  TIP3      OH2            43.7638378235       16.8375923967       71.1209908036  TIP3      468             0.0000000000
     18753       604  TIP3      H1             42.8660760310       16.6334668837       71.4755711088  TIP3      468             0.0000000000
     18754       604  TIP3      H2             44.2332821470       17.0208320270       71.9467566370  TIP3      468             0.0000000000
     18755       605  TIP3      OH2            49.1741166944       11.8220179800       77.8984177516  TIP3      469             0.0000000000
     18756       605  TIP3      H1             48.7326853371       11.4341694491       78.6864270008  TIP3      469             0.0000000000
     18757       605  TIP3      H2             49.4830061394       11.0304854414       77.4282498140  TIP3      469             0.0000000000
     18758       606  TIP3      OH2            52.5403527117       16.2794854638       80.0882371471  TIP3      470             0.0000000000
     18759       606  TIP3      H1             51.6054653555       16.0058375091       80.1237956136  TIP3      470             0.0000000000
     18760       606  TIP3      H2             52.5006104926       16.9563698345       79.3765772756  TIP3      470             0.0000000000
     18761       607  TIP3      OH2            56.6167502214       17.6763393838       67.5647633608  TIP3      471             0.0000000000
     18762       607  TIP3      H1             56.4020688476       17.6710990880       66.5926154986  TIP3      471             0.0000000000
     18763       607  TIP3      H2             55.8407717578       18.1824221595       67.8713212342  TIP3      471             0.0000000000
     18764       608  TIP3      OH2            39.9989772844        3.4653973694       79.2510256873  TIP3      472             0.0000000000
     18765       608  TIP3      H1             39.1479016027        3.7040488324       78.8398649002  TIP3      472             0.0000000000
     18766       608  TIP3      H2             39.8099559179        3.5192076263       80.2091216177  TIP3      472             0.0000000000
     18767       609  TIP3      OH2            52.3715169613       11.2572979763       69.6611083046  TIP3      473             0.0000000000
     18768       609  TIP3      H1             52.7734268263       10.3862192461       69.7513761846  TIP3      473             0.0000000000
     18769       609  TIP3      H2             52.7791855401       11.5794490124       68.8163579306  TIP3      473             0.0000000000
     18770       610  TIP3      OH2            40.0672042689       15.5322858704       78.3266269841  TIP3      474             0.0000000000
     18771       610  TIP3      H1             40.5957912425       14.7540364693       78.5567317315  TIP3      474             0.0000000000
     18772       610  TIP3      H2             40.3026098489       16.1431447195       79.0479017774  TIP3      474             0.0000000000
     18773       611  TIP3      OH2            44.6794128967       13.3230300754       68.2841003307  TIP3      475             0.0000000000
     18774       611  TIP3      H1             45.1614821309       12.7671250731       68.9250884270  TIP3      475             0.0000000000
     18775       611  TIP3      H2             45.2267596050       13.1240575525       67.4916407328  TIP3      475             0.0000000000
     18776       612  TIP3      OH2            41.5811729823       10.7089458270       68.7938309893  TIP3      476             0.0000000000
     18777       612  TIP3      H1             40.6919241170       10.5371322741       68.3990352065  TIP3      476             0.0000000000
     18778       612  TIP3      H2             41.7128950128       11.5968898485       68.3924723023  TIP3      476             0.0000000000
     18779       613  TIP3      OH2            48.9207273369        3.4359304325       79.0013652023  TIP3      477             0.0000000000
     18780       613  TIP3      H1             49.7555928500        3.7126783310       79.4200480086  TIP3      477             0.0000000000
     18781       613  TIP3      H2             48.6355388423        2.7871316126       79.6673971837  TIP3      477             0.0000000000
     18782       614  TIP3      OH2            49.7752882204        3.0925379879       70.5349954291  TIP3      478             0.0000000000
     18783       614  TIP3      H1             50.1226661477        3.6838288119       69.8538608365  TIP3      478             0.0000000000
     18784       614  TIP3      H2             50.3793382320        3.3320904753       71.2751200627  TIP3      478             0.0000000000
     18785       615  TIP3      OH2            47.4493136457       15.5758821748       68.3211461847  TIP3      479             0.0000000000
     18786       615  TIP3      H1             46.6238976096       15.0797459155       68.4606030970  TIP3      479             0.0000000000
     18787       615  TIP3      H2             47.7726140613       15.6887383802       69.2280147921  TIP3      479             0.0000000000
     18788       616  TIP3      OH2            47.3255320603        4.5245338098       70.9396529339  TIP3      480             0.0000000000
     18789       616  TIP3      H1             47.9622977806        5.2514508574       70.8015310132  TIP3      480             0.0000000000
     18790       616  TIP3      H2             47.0792007620        4.5635964463       71.8806838282  TIP3      480             0.0000000000
     18791       617  TIP3      OH2            48.1007518774        6.0688922889       79.5181629340  TIP3      481             0.0000000000
     18792       617  TIP3      H1             48.3129222526        6.3043777506       80.4465913098  TIP3      481             0.0000000000
     18793       617  TIP3      H2             48.3952480408        5.1360704453       79.4413412362  TIP3      481             0.0000000000
     18794       618  TIP3      OH2            47.9345046585        1.2820624310       71.0937373107  TIP3      482             0.0000000000
     18795       618  TIP3      H1             47.6902048659        1.7748059766       71.8914872289  TIP3      482             0.0000000000
     18796       618  TIP3      H2             48.5914915160        1.9332537049       70.7275975080  TIP3      482             0.0000000000
     18797       619  TIP3      OH2            44.7399766552       16.3987312258       68.7534980030  TIP3      483             0.0000000000
     18798       619  TIP3      H1             45.5678445380       16.8925317354       68.7302479589  TIP3      483             0.0000000000
     18799       619  TIP3      H2             44.4472716457       16.5247311405       69.6793425442  TIP3      483             0.0000000000
     18800       620  TIP3      OH2            53.2061448904        3.7875900774       80.7177404983  TIP3      484             0.0000000000
     18801       620  TIP3      H1             52.3181284502        4.1885839884       80.8436560995  TIP3      484             0.0000000000
     18802       620  TIP3      H2             53.0820110830        3.3951459915       79.8238480766  TIP3      484             0.0000000000
     18803       621  TIP3      OH2            52.4825030349        7.4921095117       74.5519249453  TIP3      485             0.0000000000
     18804       621  TIP3      H1             51.7570242282        6.8467286705       74.4869573484  TIP3      485             0.0000000000
     18805       621  TIP3      H2             53.1575669356        6.9809128383       75.0565611885  TIP3      485             0.0000000000
     18806       622  TIP3      OH2            42.1562817330       12.9246073189       67.3636767140  TIP3      486             0.0000000000
     18807       622  TIP3      H1             43.0569459537       12.8637019376       67.7494922852  TIP3      486             0.0000000000
     18808       622  TIP3      H2             42.1814706630       12.3282356504       66.5905433475  TIP3      486             0.0000000000
     18809       623  TIP3      OH2            53.0981079424       16.8236238646       76.1852123811  TIP3      487             0.0000000000
     18810       623  TIP3      H1             52.8632448663       17.3723129115       75.4111739560  TIP3      487             0.0000000000
     18811       623  TIP3      H2             54.0630894230       16.7177420916       76.0407104581  TIP3      487             0.0000000000
     18812       624  TIP3      OH2            41.4230557978        0.9589625048       74.8784739281  TIP3      488             0.0000000000
     18813       624  TIP3      H1             41.1775883790        0.8545948432       73.9260250598  TIP3      488             0.0000000000
     18814       624  TIP3      H2             41.0529602285        0.1396724409       75.2764856509  TIP3      488             0.0000000000
     18815       625  TIP3      OH2            39.7900861721       14.8734672470       71.7860210518  TIP3      489             0.0000000000
     18816       625  TIP3      H1             39.0329086679       15.4745676314       71.8298191189  TIP3      489             0.0000000000
     18817       625  TIP3      H2             39.7988876055       14.6744253347       70.8333350864  TIP3      489             0.0000000000
     18818       626  TIP3      OH2            38.9066392933       17.7477492008       82.7065153869  TIP3      490             0.0000000000
     18819       626  TIP3      H1             39.5143132056       17.6313624109       83.4727192179  TIP3      490             0.0000000000
     18820       626  TIP3      H2             38.5974326521       16.8282882101       82.6273332113  TIP3      490             0.0000000000
     18821       627  TIP3      OH2            43.9321440487       16.5953202632       83.5794058132  TIP3      491             0.0000000000
     18822       627  TIP3      H1             44.8103209468       16.1930917908       83.6832383784  TIP3      491             0.0000000000
     18823       627  TIP3      H2             43.5746962825       16.0707421639       82.8313823280  TIP3      491             0.0000000000
     18824       628  TIP3      OH2            50.0504914114       15.3127844255       83.0513877787  TIP3      492             0.0000000000
     18825       628  TIP3      H1             49.7237227810       14.4049006937       83.2725597750  TIP3      492             0.0000000000
     18826       628  TIP3      H2             50.9491189378       15.2963802814       83.4618796966  TIP3      492             0.0000000000
     18827       629  TIP3      OH2            38.8998844068       11.2796783166       83.6842958035  TIP3      493             0.0000000000
     18828       629  TIP3      H1             38.2368714928       10.6438182331       84.0307319678  TIP3      493             0.0000000000
     18829       629  TIP3      H2             38.4193001177       11.6186539775       82.8936806108  TIP3      493             0.0000000000
     18830       630  TIP3      OH2            45.5860294825       11.2808971997       82.7760619724  TIP3      494             0.0000000000
     18831       630  TIP3      H1             45.5713805015       11.8214511812       81.9622735108  TIP3      494             0.0000000000
     18832       630  TIP3      H2             45.3706189800       10.3769040637       82.4450218560  TIP3      494             0.0000000000
     18833       631  TIP3      OH2            51.1802157756       11.1127261561       80.7184955734  TIP3      495             0.0000000000
     18834       631  TIP3      H1             52.0669899549       11.5481424245       80.6743245307  TIP3      495             0.0000000000
     18835       631  TIP3      H2             50.6260297027       11.9082897884       80.6028954669  TIP3      495             0.0000000000
     18836       632  TIP3      OH2            40.3134076089        7.9777502968       83.1640102455  TIP3      496             0.0000000000
     18837       632  TIP3      H1             40.8752547302        7.3410139755       83.6161201554  TIP3      496             0.0000000000
     18838       632  TIP3      H2             40.4960429392        8.7882661782       83.6752214976  TIP3      496             0.0000000000
     18839       633  TIP3      OH2            45.0992038540        9.4758710201       68.3845297290  TIP3      497             0.0000000000
     18840       633  TIP3      H1             44.2338893350        9.3926845788       68.8150617395  TIP3      497             0.0000000000
     18841       633  TIP3      H2             44.8757656178        9.7848363177       67.4875029600  TIP3      497             0.0000000000
     18842       634  TIP3      OH2            43.6869771393        7.3617635616       79.8348233181  TIP3      498             0.0000000000
     18843       634  TIP3      H1             43.0955695667        8.1369791762       79.7898492181  TIP3      498             0.0000000000
     18844       634  TIP3      H2             44.4680991707        7.7239334245       79.3587347990  TIP3      498             0.0000000000
     18845       635  TIP3      OH2            49.2268050099       10.2918325458       83.7005188393  TIP3      499             0.0000000000
     18846       635  TIP3      H1             49.7145149361        9.5780901377       83.2435959995  TIP3      499             0.0000000000
     18847       635  TIP3      H2             48.8453056510        9.8422569016       84.4698006797  TIP3      499             0.0000000000
     18848       636  TIP3      OH2            44.7603175961        5.1947346582       81.0839646630  TIP3      500             0.0000000000
     18849       636  TIP3      H1             44.7326131295        4.4571208902       80.4187909138  TIP3      500             0.0000000000
     18850       636  TIP3      H2             44.3091728943        5.9188127821       80.6005839720  TIP3      500             0.0000000000
     18851       637  TIP3      OH2            44.6839479288        3.3159016617       79.1200456672  TIP3      501             0.0000000000
     18852       637  TIP3      H1             45.1275087628        3.5649170523       78.2752514832  TIP3      501             0.0000000000
     18853       637  TIP3      H2             43.7949846464        3.1299682065       78.7483024790  TIP3      501             0.0000000000
     18854       638  TIP3      OH2            45.9786823823        8.6381365588       79.0404813360  TIP3      502             0.0000000000
     18855       638  TIP3      H1             46.8648852131        8.8138977425       78.7042710647  TIP3      502             0.0000000000
     18856       638  TIP3      H2             45.4996675015        9.4301370650       78.7041742598  TIP3      502             0.0000000000
     18857       639  TIP3      OH2            50.2664466633        6.2252283752       84.0741334777  TIP3      503             0.0000000000
     18858       639  TIP3      H1             50.6547344548        5.3411623360       84.1666104637  TIP3      503             0.0000000000
     18859       639  TIP3      H2             50.9977486239        6.8021511748       84.3318998898  TIP3      503             0.0000000000
     18860       640  TIP3      OH2            51.8534165093        9.4111324053       82.8812113242  TIP3      504             0.0000000000
     18861       640  TIP3      H1             51.4481217319       10.0090343804       82.2152512283  TIP3      504             0.0000000000
     18862       640  TIP3      H2             52.7355004153        9.2742963557       82.4926274988  TIP3      504             0.0000000000
     18863       641  TIP3      OH2            43.0475372821        5.7358203615       83.5204597299  TIP3      505             0.0000000000
     18864       641  TIP3      H1             42.2257462202        5.2017149980       83.4759184402  TIP3      505             0.0000000000
     18865       641  TIP3      H2             43.5153127690        5.4437767413       82.7084071508  TIP3      505             0.0000000000
     18866       642  TIP3      OH2            45.3726894868        0.7927583822       78.7213722059  TIP3      506             0.0000000000
     18867       642  TIP3      H1             45.1924694934        1.6829937016       79.0998143215  TIP3      506             0.0000000000
     18868       642  TIP3      H2             44.5164711021        0.6457562029       78.2972183979  TIP3      506             0.0000000000
     18869       643  TIP3      OH2            46.5857992428        5.0938097170       83.0830992363  TIP3      507             0.0000000000
     18870       643  TIP3      H1             46.1569998491        4.5281774655       83.7401826381  TIP3      507             0.0000000000
     18871       643  TIP3      H2             45.9502452073        5.0284269410       82.3324652447  TIP3      507             0.0000000000
     18872       644  TIP3      OH2            48.9578323235        4.1853233736       82.1333048276  TIP3      508             0.0000000000
     18873       644  TIP3      H1             48.0529442215        4.3456507238       82.4727163672  TIP3      508             0.0000000000
     18874       644  TIP3      H2             49.3091704078        3.4911824130       82.7176711682  TIP3      508             0.0000000000
     18875       645  TIP3      OH2            50.9180416594        2.6643774418       83.5766910843  TIP3      509             0.0000000000
     18876       645  TIP3      H1             50.7116621253        1.7208888558       83.4036882529  TIP3      509             0.0000000000
     18877       645  TIP3      H2             50.8342945622        2.7155055697       84.5518472913  TIP3      509             0.0000000000
     18878       646  TIP3      OH2            40.7894685364        3.6870347452       83.6208074464  TIP3      510             0.0000000000
     18879       646  TIP3      H1             40.6998332157        3.0040624405       82.9113330062  TIP3      510             0.0000000000
     18880       646  TIP3      H2             40.9050654238        3.0805932791       84.3869156294  TIP3      510             0.0000000000
     18881       647  TIP3      OH2            45.5087956911        0.9627948920       81.6190979536  TIP3      511             0.0000000000
     18882       647  TIP3      H1             45.7370637942        0.0264419323       81.7960460865  TIP3      511             0.0000000000
     18883       647  TIP3      H2             45.9880910214        1.0765806175       80.7898635679  TIP3      511             0.0000000000
     18884       648  TIP3      OH2            46.2752186334        1.7461976639       84.1203086581  TIP3      512             0.0000000000
     18885       648  TIP3      H1             46.0349760342        1.4388396944       83.2208131416  TIP3      512             0.0000000000
     18886       648  TIP3      H2             45.4951700091        2.2850793598       84.3584879763  TIP3      512             0.0000000000
     18887       649  TIP3      OH2            37.9627632962       18.1926961050       71.8339123074  TIP3      513             0.0000000000
     18888       649  TIP3      H1             37.1272319910       17.8608102677       71.4749347438  TIP3      513             0.0000000000
     18889       649  TIP3      H2             38.1725935739       17.4759721262       72.4755879090  TIP3      513             0.0000000000
     18890       650  TIP3      OH2            38.4387877153       16.4935178530       73.8310330329  TIP3      514             0.0000000000
     18891       650  TIP3      H1             37.7741164748       15.7945762255       73.9675477967  TIP3      514             0.0000000000
     18892       650  TIP3      H2             38.5533404279       16.8370734362       74.7383007773  TIP3      514             0.0000000000
     18893       651  TIP3      OH2            55.9190990150       16.8458525076       76.3593098294  TIP3      515             0.0000000000
     18894       651  TIP3      H1             56.0956512246       16.6243075359       77.2878348217  TIP3      515             0.0000000000
     18895       651  TIP3      H2             56.1302372467       17.7879171028       76.3590191086  TIP3      515             0.0000000000
     18896       652  TIP3      OH2            56.0165462694       16.3511743863       79.1698943845  TIP3      516             0.0000000000
     18897       652  TIP3      H1             55.4719407525       15.5925129464       78.8525991898  TIP3      516             0.0000000000
     18898       652  TIP3      H2             55.9767205199       16.1866351310       80.1303844521  TIP3      516             0.0000000000
     18899       653  TIP3      OH2            54.4328996802       12.4845969793       84.3378801115  TIP3      517             0.0000000000
     18900       653  TIP3      H1             53.6224436435       12.6506560545       84.8696409432  TIP3      517             0.0000000000
     18901       653  TIP3      H2             54.8894977153       13.3577810858       84.3902259319  TIP3      517             0.0000000000
     18902       654  TIP3      OH2            55.8598819664       10.9178274629       69.7758429744  TIP3      518             0.0000000000
     18903       654  TIP3      H1             56.6546772451       11.4333550549       69.9983763434  TIP3      518             0.0000000000
     18904       654  TIP3      H2             55.8588675981       10.2118633002       70.4629482831  TIP3      518             0.0000000000
     18905       655  TIP3      OH2            56.1174900425        8.8506786848       71.3842010037  TIP3      519             0.0000000000
     18906       655  TIP3      H1             55.2559408031        8.5042046090       71.7297982701  TIP3      519             0.0000000000
     18907       655  TIP3      H2             56.5804224605        9.0554923204       72.2233917468  TIP3      519             0.0000000000
     18908       656  TIP3      OH2            55.7511157839       11.7562359938       76.0501436407  TIP3      520             0.0000000000
     18909       656  TIP3      H1             56.4241277311       11.0566631050       76.0368639060  TIP3      520             0.0000000000
     18910       656  TIP3      H2             56.2884602194       12.5613256448       75.9025613259  TIP3      520             0.0000000000
     18911       657  TIP3      OH2            54.1396306194       14.5126609756       78.6984236114  TIP3      521             0.0000000000
     18912       657  TIP3      H1             53.4543554342       15.0826152866       79.1000670921  TIP3      521             0.0000000000
     18913       657  TIP3      H2             53.6557129181       14.1189283737       77.9380553790  TIP3      521             0.0000000000
     18914       658  TIP3      OH2            56.8860529889        8.9629642935       67.7599655471  TIP3      522             0.0000000000
     18915       658  TIP3      H1             57.6787887786        9.0835217489       67.2005451533  TIP3      522             0.0000000000
     18916       658  TIP3      H2             56.7928937792        9.8116634272       68.2394186074  TIP3      522             0.0000000000
     18917       659  TIP3      OH2            54.0424411021        7.6613566281       72.4588397005  TIP3      523             0.0000000000
     18918       659  TIP3      H1             53.5736149262        6.8330433004       72.2241474661  TIP3      523             0.0000000000
     18919       659  TIP3      H2             53.6886945153        7.7859744654       73.3650465724  TIP3      523             0.0000000000
     18920       660  TIP3      OH2            38.7064776798        9.7301249884       76.4513678962  TIP3      524             0.0000000000
     18921       660  TIP3      H1             38.7006286722        9.4755019458       75.4997120168  TIP3      524             0.0000000000
     18922       660  TIP3      H2             39.6085474228        9.4181728168       76.7080057468  TIP3      524             0.0000000000
     18923       661  TIP3      OH2            54.7941581435        9.4605757080       81.8784162875  TIP3      525             0.0000000000
     18924       661  TIP3      H1             55.2682924090        8.5985170313       81.8563528243  TIP3      525             0.0000000000
     18925       661  TIP3      H2             55.5124480912       10.0943467403       81.6726953399  TIP3      525             0.0000000000
     18926       662  TIP3      OH2            55.9590703587        7.0297215068       82.3576248928  TIP3      526             0.0000000000
     18927       662  TIP3      H1             55.0569580385        6.6388857439       82.3963124492  TIP3      526             0.0000000000
     18928       662  TIP3      H2             56.5331040372        6.2255815511       82.2798247232  TIP3      526             0.0000000000
     18929       663  TIP3      OH2            53.2667447129        5.5341861358       71.0956486856  TIP3      527             0.0000000000
     18930       663  TIP3      H1             53.5252075916        4.5908075025       70.9246648409  TIP3      527             0.0000000000
     18931       663  TIP3      H2             54.0327015183        6.0022427266       70.7249044282  TIP3      527             0.0000000000
     18932       664  TIP3      OH2            54.3039898865        6.0364674969       75.8986171341  TIP3      528             0.0000000000
     18933       664  TIP3      H1             55.2864612544        5.9900197973       75.9234388280  TIP3      528             0.0000000000
     18934       664  TIP3      H2             54.1309343328        6.1142606731       76.8629740523  TIP3      528             0.0000000000
     18935       665  TIP3      OH2            53.9691164587        6.4888133106       78.4755784965  TIP3      529             0.0000000000
     18936       665  TIP3      H1             53.1389597689        6.8014646816       78.9037795906  TIP3      529             0.0000000000
     18937       665  TIP3      H2             54.5142284479        7.3113323533       78.4592683359  TIP3      529             0.0000000000
     18938       666  TIP3      OH2            38.8754224307        4.6862257436       82.1353034818  TIP3      530             0.0000000000
     18939       666  TIP3      H1             39.5743363295        4.5189071602       82.8029250477  TIP3      530             0.0000000000
     18940       666  TIP3      H2             38.2101243484        3.9937420588       82.3598889617  TIP3      530             0.0000000000
     18941       667  TIP3      OH2            56.9385153232        1.1933690163       84.1717279299  TIP3      531             0.0000000000
     18942       667  TIP3      H1             56.6657130105        0.4438547628       83.6247520904  TIP3      531             0.0000000000
     18943       667  TIP3      H2             56.4569766919        1.9325431323       83.7388197605  TIP3      531             0.0000000000
     18944       668  TIP3      OH2            54.2517735628        3.1464586283       70.6400922419  TIP3      532             0.0000000000
     18945       668  TIP3      H1             54.4941420106        2.5538261507       71.4064064848  TIP3      532             0.0000000000
     18946       668  TIP3      H2             53.5341594172        2.6083861368       70.2361014894  TIP3      532             0.0000000000
     18947       669  TIP3      OH2            39.9241010361        2.8978283749       75.8993108947  TIP3      533             0.0000000000
     18948       669  TIP3      H1             40.3948817321        2.1287823885       75.4951666070  TIP3      533             0.0000000000
     18949       669  TIP3      H2             40.5656304806        3.6360397321       75.7935435794  TIP3      533             0.0000000000
     18950       670  TIP3      OH2            38.1593958429        6.2562771359       76.3880686515  TIP3      534             0.0000000000
     18951       670  TIP3      H1             38.8560972730        5.9826206055       75.7684718616  TIP3      534             0.0000000000
     18952       670  TIP3      H2             38.3379579011        7.2030022546       76.4403548683  TIP3      534             0.0000000000
     18953       671  TIP3      OH2            55.4997004528        2.7459408305       82.4298572942  TIP3      535             0.0000000000
     18954       671  TIP3      H1             54.6641733730        2.8172432509       82.9489566868  TIP3      535             0.0000000000
     18955       671  TIP3      H2             55.1686166674        2.3046029801       81.6327987776  TIP3      535             0.0000000000
     18956       672  TIP3      OH2            38.2799477895        2.2256388020       70.5053602638  TIP3      536             0.0000000000
     18957       672  TIP3      H1             37.5096560616        1.7075474912       70.2026121149  TIP3      536             0.0000000000
     18958       672  TIP3      H2             38.2107294835        3.0498715237       69.9870223505  TIP3      536             0.0000000000
     18959       673  TIP3      OH2            53.0948822644       17.1275794539       72.5810112829  TIP3      537             0.0000000000
     18960       673  TIP3      H1             53.6495801469       17.0133507844       71.7810260025  TIP3      537             0.0000000000
     18961       673  TIP3      H2             53.2026738208       18.0546798543       72.8217538298  TIP3      537             0.0000000000
     18962       674  TIP3      OH2            37.6038958931        0.9872258989       78.4671643830  TIP3      538             0.0000000000
     18963       674  TIP3      H1             38.4327919308        1.0437565702       78.9673474103  TIP3      538             0.0000000000
     18964       674  TIP3      H2             37.7068317853        1.6891730074       77.8020445464  TIP3      538             0.0000000000
     18965       675  TIP3      OH2            40.4257175208       14.3387977401       82.6903900832  TIP3      539             0.0000000000
     18966       675  TIP3      H1             39.5134255330       14.5510390369       82.4188909356  TIP3      539             0.0000000000
     18967       675  TIP3      H2             40.3256340161       13.6186924935       83.3220493799  TIP3      539             0.0000000000
     18968       676  TIP3      OH2            43.1700455435       15.9828776788       79.3590158147  TIP3      540             0.0000000000
     18969       676  TIP3      H1             43.1857863276       16.8599031930       78.9158419002  TIP3      540             0.0000000000
     18970       676  TIP3      H2             44.1159888738       15.7328928550       79.2612611121  TIP3      540             0.0000000000
     18971       677  TIP3      OH2            47.3072442691       16.9427026331       81.7878282976  TIP3      541             0.0000000000
     18972       677  TIP3      H1             47.4776221548       16.8362725361       82.7464150334  TIP3      541             0.0000000000
     18973       677  TIP3      H2             48.1416857978       17.3677627119       81.5067696253  TIP3      541             0.0000000000
     18974       678  TIP3      OH2            49.4984431062       18.5752719700       81.2255625046  TIP3      542             0.0000000000
     18975       678  TIP3      H1             50.1815526297       17.9435433929       80.9425374500  TIP3      542             0.0000000000
     18976       678  TIP3      H2             49.8834676386       18.9239664104       82.0524273914  TIP3      542             0.0000000000
     18977       679  TIP3      OH2            54.8759904147        0.4378598949       80.6649942972  TIP3      543             0.0000000000
     18978       679  TIP3      H1             54.5159101562        1.0707138525       80.0278240547  TIP3      543             0.0000000000
     18979       679  TIP3      H2             55.4451184218       -0.1373281910       80.1218834009  TIP3      543             0.0000000000
     18980       680  TIP3      OH2            40.5574570246       18.5992958491       79.0416965126  TIP3      544             0.0000000000
     18981       680  TIP3      H1             39.7939636356       19.0196591822       78.5962554350  TIP3      544             0.0000000000
     18982       680  TIP3      H2             40.5635608041       19.1189121411       79.8609801829  TIP3      544             0.0000000000
     18983       681  TIP3      OH2            42.9340514156       18.4019731033       77.9458131650  TIP3      545             0.0000000000
     18984       681  TIP3      H1             42.0346182261       18.4890233258       78.3410503677  TIP3      545             0.0000000000
     18985       681  TIP3      H2             42.8829186631       19.0273337715       77.2005956932  TIP3      545             0.0000000000
     18986       682  TIP3      OH2            47.7355908558       17.7749575079       77.2818558442  TIP3      546             0.0000000000
     18987       682  TIP3      H1             46.9976281915       18.3010922608       76.9326259770  TIP3      546             0.0000000000
     18988       682  TIP3      H2             48.1622756226       18.4774994114       77.8245197450  TIP3      546             0.0000000000
     18989       683  TIP3      OH2            49.8374150618       16.6354267208       78.7105649004  TIP3      547             0.0000000000
     18990       683  TIP3      H1             49.1755967062       16.9505749557       78.0558567839  TIP3      547             0.0000000000
     18991       683  TIP3      H2             50.5743132993       17.2347687213       78.4647463616  TIP3      547             0.0000000000
     18992       684  TIP3      OH2            52.1521317569       18.2822198867       78.2301445124  TIP3      548             0.0000000000
     18993       684  TIP3      H1             52.3477204670       19.2120431703       77.9848902746  TIP3      548             0.0000000000
     18994       684  TIP3      H2             52.4627866390       17.8415271587       77.4015338302  TIP3      548             0.0000000000
     18995       685  TIP3      OH2            40.3554126218       17.0101255820       76.0565757779  TIP3      549             0.0000000000
     18996       685  TIP3      H1             40.2511283013       16.4322342024       76.8416253245  TIP3      549             0.0000000000
     18997       685  TIP3      H2             41.2192222131       16.7235513774       75.6866294174  TIP3      549             0.0000000000
     18998       686  TIP3      OH2            42.5835509662       16.1603564285       74.6308908932  TIP3      550             0.0000000000
     18999       686  TIP3      H1             42.4298780394       15.2120411146       74.8572441850  TIP3      550             0.0000000000
     19000       686  TIP3      H2             43.4449723987       16.3308596204       75.0515469789  TIP3      550             0.0000000000
     19001       687  TIP3      OH2            45.2728822247       16.7364881163       74.9758347071  TIP3      551             0.0000000000
     19002       687  TIP3      H1             45.8894363000       15.9935959527       74.9064370188  TIP3      551             0.0000000000
     19003       687  TIP3      H2             45.1575723874       16.8010614752       75.9375183264  TIP3      551             0.0000000000
     19004       688  TIP3      OH2            48.7421465916        2.0953439658       74.8731704171  TIP3      552             0.0000000000
     19005       688  TIP3      H1             47.8502706897        1.7942517047       75.1317898269  TIP3      552             0.0000000000
     19006       688  TIP3      H2             49.0757660817        1.2619189973       74.5161004360  TIP3      552             0.0000000000
     19007       689  TIP3      OH2            54.4217581470        0.1690687993       74.6848842146  TIP3      553             0.0000000000
     19008       689  TIP3      H1             54.3539354015        0.8546719621       73.9920315522  TIP3      553             0.0000000000
     19009       689  TIP3      H2             53.6323399566       -0.3844179353       74.5318633998  TIP3      553             0.0000000000
     19010       690  TIP3      OH2            55.2765191316        1.7919048573       72.6326868523  TIP3      554             0.0000000000
     19011       690  TIP3      H1             55.6564065298        1.0167371047       72.1666299997  TIP3      554             0.0000000000
     19012       690  TIP3      H2             56.0952209682        2.2237388300       72.9235468926  TIP3      554             0.0000000000
     19013       691  TIP3      OH2            40.6489923081        0.9380051711       72.3246520963  TIP3      555             0.0000000000
     19014       691  TIP3      H1             39.7826076731        1.1889066611       71.9562196137  TIP3      555             0.0000000000
     19015       691  TIP3      H2             40.9418868163        0.2031291521       71.7343668195  TIP3      555             0.0000000000
     19016       692  TIP3      OH2            39.7757940833        1.1556685764       68.5325158754  TIP3      556             0.0000000000
     19017       692  TIP3      H1             39.7610213487        1.7790768276       69.2904309894  TIP3      556             0.0000000000
     19018       692  TIP3      H2             38.8865310300        0.7675829313       68.6456019796  TIP3      556             0.0000000000
     19019       693  TIP3      OH2            44.3155764642        0.9694374346       71.8314798354  TIP3      557             0.0000000000
     19020       693  TIP3      H1             45.2110642520        1.2503587330       71.6108566722  TIP3      557             0.0000000000
     19021       693  TIP3      H2             44.4968209948        0.1973901506       72.3925249521  TIP3      557             0.0000000000
     19022       694  TIP3      OH2            51.3606221999        0.6284811416       73.5332654278  TIP3      558             0.0000000000
     19023       694  TIP3      H1             51.0031613285        1.3580891209       73.0085272239  TIP3      558             0.0000000000
     19024       694  TIP3      H2             50.6035585070        0.0682175468       73.7949012383  TIP3      558             0.0000000000
     19025       695  TIP3      OH2            52.1747057330        1.2263922228       69.6543181272  TIP3      559             0.0000000000
     19026       695  TIP3      H1             51.3456463536        1.3101637518       69.1656099756  TIP3      559             0.0000000000
     19027       695  TIP3      H2             52.0331689428        0.3809572650       70.1495109876  TIP3      559             0.0000000000
     19028       696  TIP3      OH2            39.3615014229       16.3141993867       69.3320816524  TIP3      560             0.0000000000
     19029       696  TIP3      H1             39.3131873983       15.6477791870       68.6209009084  TIP3      560             0.0000000000
     19030       696  TIP3      H2             39.4058406026       17.1369357452       68.8026860795  TIP3      560             0.0000000000
     19031       697  TIP3      OH2            41.8965135519        2.2734048592       67.2208298285  TIP3      561             0.0000000000
     19032       697  TIP3      H1             42.5816632940        1.6376432393       67.4617317518  TIP3      561             0.0000000000
     19033       697  TIP3      H2             41.1427968520        2.0088370176       67.7906498954  TIP3      561             0.0000000000
     19034       698  TIP3      OH2            45.8560631689        2.6703897863       69.6920953568  TIP3      562             0.0000000000
     19035       698  TIP3      H1             46.4737662019        1.9655894435       69.9221889698  TIP3      562             0.0000000000
     19036       698  TIP3      H2             46.2897647854        3.4205760280       70.1703577154  TIP3      562             0.0000000000
     19037       699  TIP3      OH2            48.5025820946       17.9833702497       67.7050476493  TIP3      563             0.0000000000
     19038       699  TIP3      H1             49.3475901786       17.5466263025       67.4731164457  TIP3      563             0.0000000000
     19039       699  TIP3      H2             47.9263916804       17.1875006765       67.6759219802  TIP3      563             0.0000000000
     19040       700  TIP3      OH2            54.6073483336       16.7471707076       70.4403080496  TIP3      564             0.0000000000
     19041       700  TIP3      H1             54.4594930316       15.8729449923       70.0171987610  TIP3      564             0.0000000000
     19042       700  TIP3      H2             54.5608374790       17.3225417271       69.6509605343  TIP3      564             0.0000000000
     19043       701  TIP3      OH2            40.5679509383        1.3169252305       82.1582015965  TIP3      565             0.0000000000
     19044       701  TIP3      H1             40.1225633101        0.4580009258       82.1097250486  TIP3      565             0.0000000000
     19045       701  TIP3      H2             41.3785429763        1.0813443968       82.6628421041  TIP3      565             0.0000000000
     19046       702  TIP3      OH2            42.5829878078       66.4961392780       83.5616808626  TIP3      566             0.0000000000
     19047       702  TIP3      H1             43.5415101733       66.6016633091       83.7038234821  TIP3      566             0.0000000000
     19048       702  TIP3      H2             42.4092598301       65.5368567748       83.6127450608  TIP3      566             0.0000000000
     19049       703  TIP3      OH2            49.8176306868       66.4076945907       83.8768749515  TIP3      567             0.0000000000
     19050       703  TIP3      H1             49.4387088843       65.8839486199       84.5991063466  TIP3      567             0.0000000000
     19051       703  TIP3      H2             50.2727072659       65.7156282633       83.3660677625  TIP3      567             0.0000000000
     19052       704  TIP3      OH2            54.2784349824       15.7677806486       82.0748821271  TIP3      568             0.0000000000
     19053       704  TIP3      H1             53.5405244544       15.7515934747       81.4265980205  TIP3      568             0.0000000000
     19054       704  TIP3      H2             54.2356170778       16.6939551668       82.3520184356  TIP3      568             0.0000000000
     19055       705  TIP3      OH2            59.8611775659        8.4959251502       76.9879849031  TIP3      569             0.0000000000
     19056       705  TIP3      H1             60.0577857910        7.6044335929       77.3339975799  TIP3      569             0.0000000000
     19057       705  TIP3      H2             60.1051167166        9.0394120941       77.7753979263  TIP3      569             0.0000000000
     19058       706  TIP3      OH2            61.0174262113       13.2998901559       74.7540485294  TIP3      570             0.0000000000
     19059       706  TIP3      H1             60.6884985650       12.3849395006       74.8853577432  TIP3      570             0.0000000000
     19060       706  TIP3      H2             61.9462479305       13.1789396670       75.0631043801  TIP3      570             0.0000000000
     19061       707  TIP3      OH2            57.4935588981        6.5366932686       71.1618396744  TIP3      571             0.0000000000
     19062       707  TIP3      H1             57.2254229647        6.9903040110       71.9785764643  TIP3      571             0.0000000000
     19063       707  TIP3      H2             57.3202273985        7.2421834119       70.5069472735  TIP3      571             0.0000000000
     19064       708  TIP3      OH2            57.5929711783        8.8082760208       73.6578438525  TIP3      572             0.0000000000
     19065       708  TIP3      H1             57.8710158982        7.8833311138       73.8258108997  TIP3      572             0.0000000000
     19066       708  TIP3      H2             58.4252592145        9.2038992027       73.3576338467  TIP3      572             0.0000000000
     19067       709  TIP3      OH2            -0.1033732522       11.8145120470       77.3808006623  TIP3      573             0.0000000000
     19068       709  TIP3      H1              0.4211818726       11.1208826473       76.9274122791  TIP3      573             0.0000000000
     19069       709  TIP3      H2              0.2570601901       12.6460660487       77.0267604021  TIP3      573             0.0000000000
     19070       710  TIP3      OH2            62.2393334637        3.7837026866       73.5358513473  TIP3      574             0.0000000000
     19071       710  TIP3      H1             62.4989003636        4.5640361281       72.9954125975  TIP3      574             0.0000000000
     19072       710  TIP3      H2             62.0079554762        3.1752200207       72.8137368297  TIP3      574             0.0000000000
     19073       711  TIP3      OH2            58.3718704607        6.4060473163       74.1343632055  TIP3      575             0.0000000000
     19074       711  TIP3      H1             59.0294525014        6.3745118755       74.8448104281  TIP3      575             0.0000000000
     19075       711  TIP3      H2             58.9093621043        6.0027833573       73.4150700353  TIP3      575             0.0000000000
     19076       712  TIP3      OH2            63.7852536685        7.8001398043       73.9016609640  TIP3      576             0.0000000000
     19077       712  TIP3      H1             64.6911573027        7.5904811638       74.2173796940  TIP3      576             0.0000000000
     19078       712  TIP3      H2             63.6103915726        6.9637108672       73.4416495698  TIP3      576             0.0000000000
     19079       713  TIP3      OH2            61.1210781114        2.7809987733       77.9236006321  TIP3      577             0.0000000000
     19080       713  TIP3      H1             60.8419268221        3.1858141325       77.0825297059  TIP3      577             0.0000000000
     19081       713  TIP3      H2             60.3061279495        2.9496502567       78.4488185371  TIP3      577             0.0000000000
     19082       714  TIP3      OH2            63.9366029873       10.4588122887       78.1344093100  TIP3      578             0.0000000000
     19083       714  TIP3      H1             63.3111635011       11.1360106669       78.4467611436  TIP3      578             0.0000000000
     19084       714  TIP3      H2             64.6433405508       11.0140572118       77.7509994244  TIP3      578             0.0000000000
     19085       715  TIP3      OH2            60.7895711250        4.6188627151       75.7232061654  TIP3      579             0.0000000000
     19086       715  TIP3      H1             61.4306503352        5.1654788675       76.2207785836  TIP3      579             0.0000000000
     19087       715  TIP3      H2             61.3074418047        4.4221981137       74.9027793160  TIP3      579             0.0000000000
     19088       716  TIP3      OH2            61.9715393550       12.7894052741       78.9521387566  TIP3      580             0.0000000000
     19089       716  TIP3      H1             62.0128317512       13.7185577898       78.6512073209  TIP3      580             0.0000000000
     19090       716  TIP3      H2             61.0537021231       12.7669552659       79.3125627342  TIP3      580             0.0000000000
     19091       717  TIP3      OH2            58.2885336105       12.1624280653       69.2367022687  TIP3      581             0.0000000000
     19092       717  TIP3      H1             58.1447110364       12.5401434831       68.3598001520  TIP3      581             0.0000000000
     19093       717  TIP3      H2             58.0784041611       12.9601526117       69.7779983803  TIP3      581             0.0000000000
     19094       718  TIP3      OH2            65.1400553632        0.8677956538       74.8976058197  TIP3      582             0.0000000000
     19095       718  TIP3      H1             65.4183486407        0.0529320205       75.3324288972  TIP3      582             0.0000000000
     19096       718  TIP3      H2             64.2252208413        0.9928267794       75.2253493703  TIP3      582             0.0000000000
     19097       719  TIP3      OH2            62.2269801858        9.8260658667       73.1153228396  TIP3      583             0.0000000000
     19098       719  TIP3      H1             61.9844118560        9.5701570168       72.1872860057  TIP3      583             0.0000000000
     19099       719  TIP3      H2             62.8650178959        9.1118208621       73.3457216411  TIP3      583             0.0000000000
     19100       720  TIP3      OH2            63.6931654132       12.9884676152       75.2161978732  TIP3      584             0.0000000000
     19101       720  TIP3      H1             64.0414495374       12.5648640100       74.4156207427  TIP3      584             0.0000000000
     19102       720  TIP3      H2             64.3017182600       12.6460585409       75.8872142384  TIP3      584             0.0000000000
     19103       721  TIP3      OH2            62.6964424370        8.4441006152       76.7216696108  TIP3      585             0.0000000000
     19104       721  TIP3      H1             62.8304746363        8.5287740949       75.7578502493  TIP3      585             0.0000000000
     19105       721  TIP3      H2             63.1926761190        9.2181563236       77.0739066746  TIP3      585             0.0000000000
     19106       722  TIP3      OH2            63.7218012510       12.4944371206       81.0273760389  TIP3      586             0.0000000000
     19107       722  TIP3      H1             63.2675037876       13.1119953307       81.6335004912  TIP3      586             0.0000000000
     19108       722  TIP3      H2             63.1574812227       12.5710021312       80.2281433709  TIP3      586             0.0000000000
     19109       723  TIP3      OH2            60.3648814087        9.1133651153       79.6749381565  TIP3      587             0.0000000000
     19110       723  TIP3      H1             60.8631183854        9.7821609869       80.1722304464  TIP3      587             0.0000000000
     19111       723  TIP3      H2             59.8294378818        8.7217469107       80.3901953063  TIP3      587             0.0000000000
     19112       724  TIP3      OH2            61.7800540806       14.4816382453       82.0290645675  TIP3      588             0.0000000000
     19113       724  TIP3      H1             61.7509533966       14.9238535006       81.1597609341  TIP3      588             0.0000000000
     19114       724  TIP3      H2             60.8198341762       14.3559707250       82.1994391505  TIP3      588             0.0000000000
     19115       725  TIP3      OH2            61.4332017816        8.9278189942       70.7676049435  TIP3      589             0.0000000000
     19116       725  TIP3      H1             61.1404441047        9.7040406360       70.2189450828  TIP3      589             0.0000000000
     19117       725  TIP3      H2             61.6578932299        8.3014191690       70.0767440018  TIP3      589             0.0000000000
     19118       726  TIP3      OH2            57.7629301111       11.0293872734       79.2172993988  TIP3      590             0.0000000000
     19119       726  TIP3      H1             57.5304467395       10.8452939799       78.2960627192  TIP3      590             0.0000000000
     19120       726  TIP3      H2             57.8069425524       10.1122895393       79.5706454070  TIP3      590             0.0000000000
     19121       727  TIP3      OH2            57.6428901740       13.8396482632       75.9454284705  TIP3      591             0.0000000000
     19122       727  TIP3      H1             58.5184664264       13.5693349133       75.6345673478  TIP3      591             0.0000000000
     19123       727  TIP3      H2             57.8669100632       14.5356508775       76.5951571216  TIP3      591             0.0000000000
     19124       728  TIP3      OH2            60.2954076117       17.1143484516       72.2709700847  TIP3      592             0.0000000000
     19125       728  TIP3      H1             60.8289018406       16.7363574400       73.0125958916  TIP3      592             0.0000000000
     19126       728  TIP3      H2             59.4070843291       16.8577207249       72.5796125424  TIP3      592             0.0000000000
     19127       729  TIP3      OH2            59.5205165874       12.8551590417       80.0169672924  TIP3      593             0.0000000000
     19128       729  TIP3      H1             59.7103506128       12.4465828597       80.8883045511  TIP3      593             0.0000000000
     19129       729  TIP3      H2             58.8911849378       12.1936242118       79.6509821981  TIP3      593             0.0000000000
     19130       730  TIP3      OH2            62.6164167030        1.2030495161       75.9094303853  TIP3      594             0.0000000000
     19131       730  TIP3      H1             61.8543145967        1.1712828246       75.2895705530  TIP3      594             0.0000000000
     19132       730  TIP3      H2             62.1853690728        1.6175290278       76.6794905531  TIP3      594             0.0000000000
     19133       731  TIP3      OH2            62.4477154408        5.8831145259       77.6320050065  TIP3      595             0.0000000000
     19134       731  TIP3      H1             61.5683345148        5.8384827459       78.0651974932  TIP3      595             0.0000000000
     19135       731  TIP3      H2             62.4671032478        6.7919064670       77.2491831317  TIP3      595             0.0000000000
     19136       732  TIP3      OH2            62.5607924748        5.9056857339       71.9448399564  TIP3      596             0.0000000000
     19137       732  TIP3      H1             61.6284218697        6.1861290045       72.0117300016  TIP3      596             0.0000000000
     19138       732  TIP3      H2             62.5529760439        5.4216679553       71.1088541214  TIP3      596             0.0000000000
     19139       733  TIP3      OH2            59.9349380681        6.0048370691       78.4681361393  TIP3      597             0.0000000000
     19140       733  TIP3      H1             60.0128548364        6.5142988336       79.2909289487  TIP3      597             0.0000000000
     19141       733  TIP3      H2             59.3510082912        5.2626325226       78.7302195340  TIP3      597             0.0000000000
     19142       734  TIP3      OH2            63.5279050084        3.2707570576       65.9007922694  TIP3      598             0.0000000000
     19143       734  TIP3      H1             63.1041071209        3.5238926243       66.7511049386  TIP3      598             0.0000000000
     19144       734  TIP3      H2             63.9462787201        4.0856086802       65.6262381433  TIP3      598             0.0000000000
     19145       735  TIP3      OH2            57.9866095534        2.8575710151       72.8071567785  TIP3      599             0.0000000000
     19146       735  TIP3      H1             58.2188865628        3.1845088360       73.7094364487  TIP3      599             0.0000000000
     19147       735  TIP3      H2             58.4935830117        2.0107800518       72.7918277731  TIP3      599             0.0000000000
     19148       736  TIP3      OH2            58.1240054452        4.6346871962       68.1015032100  TIP3      600             0.0000000000
     19149       736  TIP3      H1             58.6455051807        3.8783740812       67.7509126129  TIP3      600             0.0000000000
     19150       736  TIP3      H2             58.3833854245        5.3476949296       67.4856628545  TIP3      600             0.0000000000
     19151       737  TIP3      OH2            64.9395385035        3.9435608498       73.9638319529  TIP3      601             0.0000000000
     19152       737  TIP3      H1             63.9934943780        3.7476056718       73.8327156306  TIP3      601             0.0000000000
     19153       737  TIP3      H2             65.1996574983        3.1154234955       74.3963768378  TIP3      601             0.0000000000
     19154       738  TIP3      OH2            59.8370921889        5.6927837656       72.0971636283  TIP3      602             0.0000000000
     19155       738  TIP3      H1             59.1061307564        5.8929872991       71.4659344284  TIP3      602             0.0000000000
     19156       738  TIP3      H2             60.0802572444        4.7824278242       71.8392151910  TIP3      602             0.0000000000
     19157       739  TIP3      OH2            63.9454072589        5.8547910864       68.8796321152  TIP3      603             0.0000000000
     19158       739  TIP3      H1             64.6352555815        5.8893156753       69.5579393027  TIP3      603             0.0000000000
     19159       739  TIP3      H2             63.8213692782        6.7812841193       68.6359841553  TIP3      603             0.0000000000
     19160       740  TIP3      OH2            59.8212056825       11.3928135373       82.2422585313  TIP3      604             0.0000000000
     19161       740  TIP3      H1             60.5951546457       11.3334379761       82.8405242901  TIP3      604             0.0000000000
     19162       740  TIP3      H2             59.1132440158       11.0291600147       82.8189438060  TIP3      604             0.0000000000
     19163       741  TIP3      OH2            -0.2290440524        6.4063477782       74.4603482444  TIP3      605             0.0000000000
     19164       741  TIP3      H1              0.6846178406        6.2528741650       74.1659077648  TIP3      605             0.0000000000
     19165       741  TIP3      H2             -0.6385024384        5.5259904079       74.2885812999  TIP3      605             0.0000000000
     19166       742  TIP3      OH2            60.8502037323        3.0566090409       71.2639835616  TIP3      606             0.0000000000
     19167       742  TIP3      H1             60.2287321081        2.3716266380       71.5771501814  TIP3      606             0.0000000000
     19168       742  TIP3      H2             61.6359454723        2.5280915522       71.0125592788  TIP3      606             0.0000000000
     19169       743  TIP3      OH2            64.6535859444        4.5185423023       77.3937242010  TIP3      607             0.0000000000
     19170       743  TIP3      H1             63.8424467362        5.0737840487       77.4952665063  TIP3      607             0.0000000000
     19171       743  TIP3      H2             65.3507798327        5.1995113742       77.3447558508  TIP3      607             0.0000000000
     19172       744  TIP3      OH2            65.2603157905       11.6847019040       69.5729083931  TIP3      608             0.0000000000
     19173       744  TIP3      H1             64.8589841189       10.8987707713       69.1684354825  TIP3      608             0.0000000000
     19174       744  TIP3      H2             65.0008143014       11.5787881989       70.5144251354  TIP3      608             0.0000000000
     19175       745  TIP3      OH2            60.4671748598       10.5097772865       75.1748334329  TIP3      609             0.0000000000
     19176       745  TIP3      H1             60.9473475640       10.1882601831       74.3843151096  TIP3      609             0.0000000000
     19177       745  TIP3      H2             60.4094884031        9.7051488118       75.7298719144  TIP3      609             0.0000000000
     19178       746  TIP3      OH2            57.2758323225        8.5650339255       80.4566901715  TIP3      610             0.0000000000
     19179       746  TIP3      H1             57.0668217326        7.9835494804       81.2158549633  TIP3      610             0.0000000000
     19180       746  TIP3      H2             56.5266553664        8.3887903025       79.8521371897  TIP3      610             0.0000000000
     19181       747  TIP3      OH2            64.8248437810        8.3154555301       82.0392597668  TIP3      611             0.0000000000
     19182       747  TIP3      H1             64.1444199920        8.1828534202       81.3502350221  TIP3      611             0.0000000000
     19183       747  TIP3      H2             65.4871839599        7.6660615174       81.7443694786  TIP3      611             0.0000000000
     19184       748  TIP3      OH2            63.2087190398       14.2918433425       72.0812651559  TIP3      612             0.0000000000
     19185       748  TIP3      H1             63.0948036130       15.2496410482       72.1497100182  TIP3      612             0.0000000000
     19186       748  TIP3      H2             62.4570433525       13.9794730233       72.6004903779  TIP3      612             0.0000000000
     19187       749  TIP3      OH2            64.3324580166       11.6583525590       72.1427199201  TIP3      613             0.0000000000
     19188       749  TIP3      H1             63.9408407040       12.5567897859       72.0828359215  TIP3      613             0.0000000000
     19189       749  TIP3      H2             63.6549771094       11.1286958891       72.6048277837  TIP3      613             0.0000000000
     19190       750  TIP3      OH2            64.7188514830       15.5897627287       78.7848266517  TIP3      614             0.0000000000
     19191       750  TIP3      H1             64.9738269277       16.5259825169       78.8508561820  TIP3      614             0.0000000000
     19192       750  TIP3      H2             65.3912495262       15.1417278384       79.3239400496  TIP3      614             0.0000000000
     19193       751  TIP3      OH2            63.1444825362       17.3630463321       71.1458655869  TIP3      615             0.0000000000
     19194       751  TIP3      H1             62.2231662211       17.1484376565       71.3964195011  TIP3      615             0.0000000000
     19195       751  TIP3      H2             63.2409067105       18.2224884599       71.6138426407  TIP3      615             0.0000000000
     19196       752  TIP3      OH2            58.7052184626        3.5090036512       79.0981272104  TIP3      616             0.0000000000
     19197       752  TIP3      H1             57.7901561463        3.8544385600       79.1119772390  TIP3      616             0.0000000000
     19198       752  TIP3      H2             58.7546639549        3.0400016777       79.9499416222  TIP3      616             0.0000000000
     19199       753  TIP3      OH2            58.6951666116       15.5804438611       77.8478091480  TIP3      617             0.0000000000
     19200       753  TIP3      H1             59.3901961858       15.0996210070       78.3272045194  TIP3      617             0.0000000000
     19201       753  TIP3      H2             58.1727920039       15.9746877436       78.5687491424  TIP3      617             0.0000000000
     19202       754  TIP3      OH2            62.9465636519       12.8451519873       66.0124031592  TIP3      618             0.0000000000
     19203       754  TIP3      H1             63.1723502079       12.4122932411       65.1904451721  TIP3      618             0.0000000000
     19204       754  TIP3      H2             63.1266308068       12.0931964378       66.6412508076  TIP3      618             0.0000000000
     19205       755  TIP3      OH2            63.2757742858       13.4939478539       68.9007017991  TIP3      619             0.0000000000
     19206       755  TIP3      H1             64.0357598644       12.9463245410       69.1808347667  TIP3      619             0.0000000000
     19207       755  TIP3      H2             63.5401999061       14.4163488921       69.0815857469  TIP3      619             0.0000000000
     19208       756  TIP3      OH2            60.7438155715       10.9194623660       69.1952496284  TIP3      620             0.0000000000
     19209       756  TIP3      H1             59.8427870277       11.2891674081       69.2966571221  TIP3      620             0.0000000000
     19210       756  TIP3      H2             61.0900285759       11.4283508035       68.4508444660  TIP3      620             0.0000000000
     19211       757  TIP3      OH2            66.3085845354        4.6765928511       70.3046038381  TIP3      621             0.0000000000
     19212       757  TIP3      H1             66.8058981264        5.3666788239       70.7918930081  TIP3      621             0.0000000000
     19213       757  TIP3      H2             65.8667241099        4.2085599336       71.0300099860  TIP3      621             0.0000000000
     19214       758  TIP3      OH2            63.5613728633       16.1388955208       68.7067103195  TIP3      622             0.0000000000
     19215       758  TIP3      H1             63.7084022336       16.9896187329       68.2775405981  TIP3      622             0.0000000000
     19216       758  TIP3      H2             63.2938319683       16.4677469744       69.5913961535  TIP3      622             0.0000000000
     19217       759  TIP3      OH2            62.6005726342        3.5151368042       68.4554169722  TIP3      623             0.0000000000
     19218       759  TIP3      H1             62.9851955780        4.4001512587       68.6614604447  TIP3      623             0.0000000000
     19219       759  TIP3      H2             62.9603903661        2.9845813139       69.2004527247  TIP3      623             0.0000000000
     19220       760  TIP3      OH2            60.8802922224       13.4352484396       67.5681470584  TIP3      624             0.0000000000
     19221       760  TIP3      H1             61.5918587378       13.5585763786       68.2356872729  TIP3      624             0.0000000000
     19222       760  TIP3      H2             61.4567197578       13.1424632681       66.8308992711  TIP3      624             0.0000000000
     19223       761  TIP3      OH2            59.9713664792        0.8774003424       75.3402184475  TIP3      625             0.0000000000
     19224       761  TIP3      H1             59.6340605534        0.2999391940       74.6221822769  TIP3      625             0.0000000000
     19225       761  TIP3      H2             59.8139248181        0.2059654630       76.0408412580  TIP3      625             0.0000000000
     19226       762  TIP3      OH2            57.9272229466       14.4900160436       70.4211572295  TIP3      626             0.0000000000
     19227       762  TIP3      H1             57.2527373611       15.0812239813       70.7926098828  TIP3      626             0.0000000000
     19228       762  TIP3      H2             58.7374137231       14.9569450981       70.6493407332  TIP3      626             0.0000000000
     19229       763  TIP3      OH2            57.6048135846       17.6706249704       82.8539425992  TIP3      627             0.0000000000
     19230       763  TIP3      H1             58.1974994338       17.5755363005       83.6379361614  TIP3      627             0.0000000000
     19231       763  TIP3      H2             57.3909057185       16.7296962814       82.7209328053  TIP3      627             0.0000000000
     19232       764  TIP3      OH2            62.5373471009       16.1076304537       84.0541331453  TIP3      628             0.0000000000
     19233       764  TIP3      H1             63.3940524269       15.6822354673       84.2228490092  TIP3      628             0.0000000000
     19234       764  TIP3      H2             62.2812559574       15.6420666190       83.2304731332  TIP3      628             0.0000000000
     19235       765  TIP3      OH2            57.5203480895       11.2136900466       83.6775578747  TIP3      629             0.0000000000
     19236       765  TIP3      H1             56.9666105085       10.4896546807       84.0292775705  TIP3      629             0.0000000000
     19237       765  TIP3      H2             57.0454345557       11.4397987113       82.8503158947  TIP3      629             0.0000000000
     19238       766  TIP3      OH2            64.3641070253       10.8562174315       83.0671220721  TIP3      630             0.0000000000
     19239       766  TIP3      H1             64.2177641158       11.4767978930       82.3111703339  TIP3      630             0.0000000000
     19240       766  TIP3      H2             64.4696269177        9.9941705165       82.5983007178  TIP3      630             0.0000000000
     19241       767  TIP3      OH2            59.2321523281        7.9802752531       82.9228451301  TIP3      631             0.0000000000
     19242       767  TIP3      H1             58.6655044025        7.2502800090       83.1738378509  TIP3      631             0.0000000000
     19243       767  TIP3      H2             59.3945386523        8.4517193757       83.7651358931  TIP3      631             0.0000000000
     19244       768  TIP3      OH2            62.7176362889        7.8384212966       80.2169759559  TIP3      632             0.0000000000
     19245       768  TIP3      H1             61.8791362391        8.1827673032       79.8533977944  TIP3      632             0.0000000000
     19246       768  TIP3      H2             63.3225561814        7.9165939699       79.4479667572  TIP3      632             0.0000000000
     19247       769  TIP3      OH2            63.0751945469        5.2640993536       81.0102731604  TIP3      633             0.0000000000
     19248       769  TIP3      H1             63.2111936074        4.5758302259       80.3132318168  TIP3      633             0.0000000000
     19249       769  TIP3      H2             63.0808400112        6.1083799691       80.5132971321  TIP3      633             0.0000000000
     19250       770  TIP3      OH2            63.3768900184        3.2180310707       79.2259709475  TIP3      634             0.0000000000
     19251       770  TIP3      H1             63.9645625068        3.4729120491       78.4779387555  TIP3      634             0.0000000000
     19252       770  TIP3      H2             62.5298348748        3.1038211639       78.7440318135  TIP3      634             0.0000000000
     19253       771  TIP3      OH2            65.5382799733        7.9604801199       78.8445536107  TIP3      635             0.0000000000
     19254       771  TIP3      H1             66.0014157685        7.3858813398       78.2042427165  TIP3      635             0.0000000000
     19255       771  TIP3      H2             65.4738338588        8.8106818217       78.3759544703  TIP3      635             0.0000000000
     19256       772  TIP3      OH2            61.6390435330        5.5140647342       83.2540667968  TIP3      636             0.0000000000
     19257       772  TIP3      H1             60.7331705687        5.2523549897       82.9886448170  TIP3      636             0.0000000000
     19258       772  TIP3      H2             62.1520567557        5.4416150835       82.4156093605  TIP3      636             0.0000000000
     19259       773  TIP3      OH2            63.5529755382        0.7062444131       80.0061364644  TIP3      637             0.0000000000
     19260       773  TIP3      H1             63.5746469163        1.6493912331       79.7255132510  TIP3      637             0.0000000000
     19261       773  TIP3      H2             63.6817587977        0.2452245617       79.1685236302  TIP3      637             0.0000000000
     19262       774  TIP3      OH2            64.7539796676        4.8812420499       83.0934036601  TIP3      638             0.0000000000
     19263       774  TIP3      H1             64.1567168891        4.4969450772       83.7752727168  TIP3      638             0.0000000000
     19264       774  TIP3      H2             64.1306778205        4.9908556705       82.3386794033  TIP3      638             0.0000000000
     19265       775  TIP3      OH2            59.4039041136        3.9051469850       83.5804354380  TIP3      639             0.0000000000
     19266       775  TIP3      H1             59.5196507788        3.1165741096       83.0077712506  TIP3      639             0.0000000000
     19267       775  TIP3      H2             59.7259727338        3.5331216902       84.4342961017  TIP3      639             0.0000000000
     19268       776  TIP3      OH2            64.0023045918       66.4894080703       82.5835898722  TIP3      640             0.0000000000
     19269       776  TIP3      H1             64.3928198584       65.5934007710       82.5570610296  TIP3      640             0.0000000000
     19270       776  TIP3      H2             63.8984193474       66.6952918142       81.6200253242  TIP3      640             0.0000000000
     19271       777  TIP3      OH2            65.8580355751        1.3816798787       84.3477556258  TIP3      641             0.0000000000
     19272       777  TIP3      H1             65.1379975285        1.1029492721       83.7487318724  TIP3      641             0.0000000000
     19273       777  TIP3      H2             65.7000885213        2.3347844915       84.4265379919  TIP3      641             0.0000000000
     19274       778  TIP3      OH2            58.4453310163       12.8452537314       66.0472878797  TIP3      642             0.0000000000
     19275       778  TIP3      H1             59.0116866414       13.2111538764       66.7486376520  TIP3      642             0.0000000000
     19276       778  TIP3      H2             58.7881367861       11.9522617868       65.9230842475  TIP3      642             0.0000000000
     19277       779  TIP3      OH2            56.5047248657       18.0958767526       71.8842246173  TIP3      643             0.0000000000
     19278       779  TIP3      H1             55.8381319644       17.5259762964       71.4414237222  TIP3      643             0.0000000000
     19279       779  TIP3      H2             56.9554190890       17.4734147480       72.4853490325  TIP3      643             0.0000000000
     19280       780  TIP3      OH2            57.7763037141       16.2608722254       73.5885342283  TIP3      644             0.0000000000
     19281       780  TIP3      H1             56.9930019567       15.9118799659       74.0534180887  TIP3      644             0.0000000000
     19282       780  TIP3      H2             58.2805183182       16.5871128150       74.3703490135  TIP3      644             0.0000000000
     19283       781  TIP3      OH2            57.5153005419        9.5822106277       76.5319659673  TIP3      645             0.0000000000
     19284       781  TIP3      H1             57.4137998442        9.3615065142       75.5784414790  TIP3      645             0.0000000000
     19285       781  TIP3      H2             58.4445285818        9.3064564382       76.6937863898  TIP3      645             0.0000000000
     19286       782  TIP3      OH2            57.2597310665        4.7523525353       82.3969872398  TIP3      646             0.0000000000
     19287       782  TIP3      H1             58.0161776834        4.4389890975       82.9479722119  TIP3      646             0.0000000000
     19288       782  TIP3      H2             56.6875622314        3.9553460953       82.3688121297  TIP3      646             0.0000000000
     19289       783  TIP3      OH2            58.5471043966        3.1850805818       75.5190818364  TIP3      647             0.0000000000
     19290       783  TIP3      H1             58.8847656816        2.2644137549       75.6118051961  TIP3      647             0.0000000000
     19291       783  TIP3      H2             59.3636297198        3.7193651679       75.6511484234  TIP3      647             0.0000000000
     19292       784  TIP3      OH2            56.8966253242        5.8874972401       76.5426201062  TIP3      648             0.0000000000
     19293       784  TIP3      H1             57.4379253285        5.1678846752       76.1830413972  TIP3      648             0.0000000000
     19294       784  TIP3      H2             57.4315780640        6.6725605935       76.3520313677  TIP3      648             0.0000000000
     19295       785  TIP3      OH2            56.7137191066        1.9065729551       69.0716688864  TIP3      649             0.0000000000
     19296       785  TIP3      H1             56.0451075382        1.2177474300       69.2635673462  TIP3      649             0.0000000000
     19297       785  TIP3      H2             56.4390273382        2.1445280949       68.1450532223  TIP3      649             0.0000000000
     19298       786  TIP3      OH2            56.7429759332        0.9441854318       78.1969702287  TIP3      650             0.0000000000
     19299       786  TIP3      H1             57.2029667061        1.2293953148       78.9952854661  TIP3      650             0.0000000000
     19300       786  TIP3      H2             56.4405004180        1.7882082117       77.8010199616  TIP3      650             0.0000000000
     19301       787  TIP3      OH2            59.0643336954       14.0469208792       82.6134575858  TIP3      651             0.0000000000
     19302       787  TIP3      H1             58.1344341322       14.1373723739       82.3123066920  TIP3      651             0.0000000000
     19303       787  TIP3      H2             59.1574288061       13.0873539484       82.7232853056  TIP3      651             0.0000000000
     19304       788  TIP3      OH2            62.0832273156       15.7082527142       79.3555807472  TIP3      652             0.0000000000
     19305       788  TIP3      H1             61.8911688330       16.4984449808       78.8019640787  TIP3      652             0.0000000000
     19306       788  TIP3      H2             63.0512327371       15.6052304716       79.2093794124  TIP3      652             0.0000000000
     19307       789  TIP3      OH2            59.6815530364       18.8089650364       79.2938660491  TIP3      653             0.0000000000
     19308       789  TIP3      H1             58.8715872472       19.3086898783       79.0538855156  TIP3      653             0.0000000000
     19309       789  TIP3      H2             59.5459435365       18.6526835243       80.2377871392  TIP3      653             0.0000000000
     19310       790  TIP3      OH2            61.6371695110       17.9923031461       77.8122925017  TIP3      654             0.0000000000
     19311       790  TIP3      H1             60.7644379858       18.1582765693       78.2500045523  TIP3      654             0.0000000000
     19312       790  TIP3      H2             61.6628529520       18.7127390570       77.1586189591  TIP3      654             0.0000000000
     19313       791  TIP3      OH2            59.2426917559       16.9864867607       75.6846381694  TIP3      655             0.0000000000
     19314       791  TIP3      H1             58.8641136797       16.5048192521       76.4579977746  TIP3      655             0.0000000000
     19315       791  TIP3      H2             60.1631793661       16.6648453436       75.6966736985  TIP3      655             0.0000000000
     19316       792  TIP3      OH2            61.5064382831       15.9575166548       74.3407231868  TIP3      656             0.0000000000
     19317       792  TIP3      H1             61.1841967347       15.0435221730       74.5109743171  TIP3      656             0.0000000000
     19318       792  TIP3      H2             62.1769559011       16.0364767153       75.0649478006  TIP3      656             0.0000000000
     19319       793  TIP3      OH2            63.2653438287       15.7553628794       76.3336163788  TIP3      657             0.0000000000
     19320       793  TIP3      H1             63.8065472330       15.0700714719       75.9122011126  TIP3      657             0.0000000000
     19321       793  TIP3      H2             63.6894935941       15.8300596739       77.2061493624  TIP3      657             0.0000000000
     19322       794  TIP3      OH2            59.5347454607        0.7190727293       72.1221904346  TIP3      658             0.0000000000
     19323       794  TIP3      H1             59.0748756957        0.3800423374       71.3310241843  TIP3      658             0.0000000000
     19324       794  TIP3      H2             60.3787305703        0.2376080830       72.1035266313  TIP3      658             0.0000000000
     19325       795  TIP3      OH2            59.2987267155        0.5091366862       69.1388903736  TIP3      659             0.0000000000
     19326       795  TIP3      H1             59.4763885292        1.2595935324       68.5301106064  TIP3      659             0.0000000000
     19327       795  TIP3      H2             58.3579308749        0.3691012058       68.9296011138  TIP3      659             0.0000000000
     19328       796  TIP3      OH2            64.2176132881       65.8188561625       72.6404956506  TIP3      660             0.0000000000
     19329       796  TIP3      H1             64.1062370755       66.5068671970       71.9504563539  TIP3      660             0.0000000000
     19330       796  TIP3      H2             64.7288641336       66.3183571981       73.3083404609  TIP3      660             0.0000000000
     19331       797  TIP3      OH2            60.0279864447        2.6916076400       67.5524973308  TIP3      661             0.0000000000
     19332       797  TIP3      H1             60.5120582969        2.4876284281       66.7336422761  TIP3      661             0.0000000000
     19333       797  TIP3      H2             60.7539087828        3.0248328059       68.1223438272  TIP3      661             0.0000000000
     19334       798  TIP3      OH2            65.9462469965        3.0251156648       68.0970131117  TIP3      662             0.0000000000
     19335       798  TIP3      H1             65.2739432506        2.4410940177       68.4665015824  TIP3      662             0.0000000000
     19336       798  TIP3      H2             66.1448996736        3.5784065000       68.8834620555  TIP3      662             0.0000000000
     19337       799  TIP3      OH2            58.8454889563        1.2898307160       81.8969852142  TIP3      663             0.0000000000
     19338       799  TIP3      H1             58.2810639499        0.5145659516       81.7346429179  TIP3      663             0.0000000000
     19339       799  TIP3      H2             59.5785361324        0.8758581630       82.3926678735  TIP3      663             0.0000000000
     19340       800  TIP3      OH2            61.0397954646       66.4778490783       83.2454388528  TIP3      664             0.0000000000
     19341       800  TIP3      H1             61.9864258301       66.7246617323       83.2469025404  TIP3      664             0.0000000000
     19342       800  TIP3      H2             61.0615713909       65.5473864246       83.5379671027  TIP3      664             0.0000000000
     19343       801  TIP3      OH2            12.4742871848       28.6496479328       72.1250374117  TIP3      665             0.0000000000
     19344       801  TIP3      H1             12.3042107741       29.6129532660       72.2476635833  TIP3      665             0.0000000000
     19345       801  TIP3      H2             11.9786474265       28.2754896574       72.8691342407  TIP3      665             0.0000000000
     19346       802  TIP3      OH2            10.9743299864       27.4497313671       75.5742969055  TIP3      666             0.0000000000
     19347       802  TIP3      H1             11.0410048426       27.0072149427       76.4465609685  TIP3      666             0.0000000000
     19348       802  TIP3      H2             10.3402130556       26.9229806690       75.0544207905  TIP3      666             0.0000000000
     19349       803  TIP3      OH2             3.5756091664       27.5610003166       77.3448392503  TIP3      667             0.0000000000
     19350       803  TIP3      H1              3.3170225331       26.8221394774       77.9173581615  TIP3      667             0.0000000000
     19351       803  TIP3      H2              4.0233511363       28.1225350947       78.0040551886  TIP3      667             0.0000000000
     19352       804  TIP3      OH2            14.3092945315       30.6745545029       74.4436926836  TIP3      668             0.0000000000
     19353       804  TIP3      H1             14.2554211699       29.8487034247       74.9474604796  TIP3      668             0.0000000000
     19354       804  TIP3      H2             14.4809858368       31.3100478064       75.1612187840  TIP3      668             0.0000000000
     19355       805  TIP3      OH2             3.6924864339       31.8115949884       75.3280763873  TIP3      669             0.0000000000
     19356       805  TIP3      H1              3.8027106907       30.8438941566       75.2063448681  TIP3      669             0.0000000000
     19357       805  TIP3      H2              4.5600222097       31.9983559713       75.7216274104  TIP3      669             0.0000000000
     19358       806  TIP3      OH2             0.8002876027       25.9544769613       71.0343500420  TIP3      670             0.0000000000
     19359       806  TIP3      H1              0.5043665589       26.7468247677       71.5052136475  TIP3      670             0.0000000000
     19360       806  TIP3      H2              0.1223854641       25.2900981132       71.2789150583  TIP3      670             0.0000000000
     19361       807  TIP3      OH2             1.4802114568       27.7550712047       73.4968605233  TIP3      671             0.0000000000
     19362       807  TIP3      H1              1.8421816935       26.9274054558       73.8863995391  TIP3      671             0.0000000000
     19363       807  TIP3      H2              2.1926940653       27.9872545607       72.8898728473  TIP3      671             0.0000000000
     19364       808  TIP3      OH2            12.7412800041       36.1360551430       74.7569295965  TIP3      672             0.0000000000
     19365       808  TIP3      H1             13.1436737974       35.4733564216       74.1547781226  TIP3      672             0.0000000000
     19366       808  TIP3      H2             11.7823334096       35.9550848142       74.5909872190  TIP3      672             0.0000000000
     19367       809  TIP3      OH2             9.1653997534       30.5985752412       76.6426941733  TIP3      673             0.0000000000
     19368       809  TIP3      H1              9.3932929132       30.5595230529       75.7062114374  TIP3      673             0.0000000000
     19369       809  TIP3      H2             10.0497939432       30.4437832939       77.0225562606  TIP3      673             0.0000000000
     19370       810  TIP3      OH2            17.7815097490       21.7035377882       76.4878667444  TIP3      674             0.0000000000
     19371       810  TIP3      H1             18.1579642733       22.2045904137       77.2468886559  TIP3      674             0.0000000000
     19372       810  TIP3      H2             18.5740452546       21.5303639445       75.9535708147  TIP3      674             0.0000000000
     19373       811  TIP3      OH2            13.1177821062       24.7136179384       76.5932149794  TIP3      675             0.0000000000
     19374       811  TIP3      H1             13.0837955645       23.7500070848       76.7703996538  TIP3      675             0.0000000000
     19375       811  TIP3      H2             13.0341826573       24.7020236008       75.6135632895  TIP3      675             0.0000000000
     19376       812  TIP3      OH2             5.0143672349       22.4479183961       73.5038996076  TIP3      676             0.0000000000
     19377       812  TIP3      H1              5.4657572788       23.1242329315       72.9586102019  TIP3      676             0.0000000000
     19378       812  TIP3      H2              5.3051567813       21.6585650805       73.0206331297  TIP3      676             0.0000000000
     19379       813  TIP3      OH2            13.8753776934       23.3810020053       72.2562927759  TIP3      677             0.0000000000
     19380       813  TIP3      H1             14.1860991179       22.7282195037       72.9326627459  TIP3      677             0.0000000000
     19381       813  TIP3      H2             14.7410297631       23.5667685203       71.8294795811  TIP3      677             0.0000000000
     19382       814  TIP3      OH2             2.5733868379       25.4011110014       74.3067899638  TIP3      678             0.0000000000
     19383       814  TIP3      H1              3.0068977043       24.7356023128       74.8747898901  TIP3      678             0.0000000000
     19384       814  TIP3      H2              2.9034259065       25.1530761507       73.4170994966  TIP3      678             0.0000000000
     19385       815  TIP3      OH2             6.9055074587       26.5772183356       73.7133990141  TIP3      679             0.0000000000
     19386       815  TIP3      H1              7.7363708504       26.1271309949       73.9745721172  TIP3      679             0.0000000000
     19387       815  TIP3      H2              6.4857787012       25.8872101075       73.1482515661  TIP3      679             0.0000000000
     19388       816  TIP3      OH2            18.2315489531       23.0282924465       78.8113557957  TIP3      680             0.0000000000
     19389       816  TIP3      H1             17.6945526007       23.8223749866       78.5604953396  TIP3      680             0.0000000000
     19390       816  TIP3      H2             18.9583529025       23.4745910590       79.2555626698  TIP3      680             0.0000000000
     19391       817  TIP3      OH2             4.8906015793       21.6551866200       78.1539968184  TIP3      681             0.0000000000
     19392       817  TIP3      H1              4.6621890176       22.1643320433       77.3546315812  TIP3      681             0.0000000000
     19393       817  TIP3      H2              4.0751936825       21.8178402784       78.6875042169  TIP3      681             0.0000000000
     19394       818  TIP3      OH2            11.6529059421       31.2722159060       71.5622505063  TIP3      682             0.0000000000
     19395       818  TIP3      H1             11.1908391256       31.3909322295       70.7253953328  TIP3      682             0.0000000000
     19396       818  TIP3      H2             11.6675945011       32.1895390984       71.8781547922  TIP3      682             0.0000000000
     19397       819  TIP3      OH2             6.8325884040       29.3540905186       77.7641139058  TIP3      683             0.0000000000
     19398       819  TIP3      H1              6.1902084881       30.0911622419       77.8827285296  TIP3      683             0.0000000000
     19399       819  TIP3      H2              7.5640370952       29.8526267899       77.3363989919  TIP3      683             0.0000000000
     19400       820  TIP3      OH2            15.1529984245       22.0450651066       74.1477125852  TIP3      684             0.0000000000
     19401       820  TIP3      H1             15.3969639166       21.6289934655       74.9882562504  TIP3      684             0.0000000000
     19402       820  TIP3      H2             15.9703843064       22.5441060353       73.9750036779  TIP3      684             0.0000000000
     19403       821  TIP3      OH2             4.1113244488       23.6151994236       75.8477239689  TIP3      685             0.0000000000
     19404       821  TIP3      H1              4.7201756586       24.2850666155       76.2384387552  TIP3      685             0.0000000000
     19405       821  TIP3      H2              4.6029991237       23.2837975934       75.0556035627  TIP3      685             0.0000000000
     19406       822  TIP3      OH2             5.4685260504       31.6256079034       78.4920143646  TIP3      686             0.0000000000
     19407       822  TIP3      H1              5.4547585576       32.5651788408       78.2345353049  TIP3      686             0.0000000000
     19408       822  TIP3      H2              4.7023411230       31.5394825105       79.1045722260  TIP3      686             0.0000000000
     19409       823  TIP3      OH2             1.7513617896       31.4787171471       68.9305399604  TIP3      687             0.0000000000
     19410       823  TIP3      H1              1.8655472763       31.2244067532       67.9702775076  TIP3      687             0.0000000000
     19411       823  TIP3      H2              1.9571943248       32.4178598373       68.8414876320  TIP3      687             0.0000000000
     19412       824  TIP3      OH2            14.8060345424       32.6373098945       76.4804529704  TIP3      688             0.0000000000
     19413       824  TIP3      H1             13.8497498574       32.7460600839       76.6661800374  TIP3      688             0.0000000000
     19414       824  TIP3      H2             15.0272530211       33.5644986038       76.2591742408  TIP3      688             0.0000000000
     19415       825  TIP3      OH2            15.3630542413       21.6017662274       77.7956965217  TIP3      689             0.0000000000
     19416       825  TIP3      H1             14.6226812274       22.0558655126       77.3611711457  TIP3      689             0.0000000000
     19417       825  TIP3      H2             16.1345308050       21.8011064375       77.2203998115  TIP3      689             0.0000000000
     19418       826  TIP3      OH2             8.3258178504       19.1689133040       75.1451579577  TIP3      690             0.0000000000
     19419       826  TIP3      H1              7.7833674963       18.3889877019       74.9596162560  TIP3      690             0.0000000000
     19420       826  TIP3      H2              7.6272710518       19.7551663188       75.5079776383  TIP3      690             0.0000000000
     19421       827  TIP3      OH2            13.6859982613       34.4542100794       72.7499873660  TIP3      691             0.0000000000
     19422       827  TIP3      H1             13.9500548399       33.6247931453       72.2765653449  TIP3      691             0.0000000000
     19423       827  TIP3      H2             14.5601794885       34.8827906354       72.8861074094  TIP3      691             0.0000000000
     19424       828  TIP3      OH2            14.8360316682       32.2821697507       71.7073894929  TIP3      692             0.0000000000
     19425       828  TIP3      H1             14.8657761894       31.6006590544       70.9971728566  TIP3      692             0.0000000000
     19426       828  TIP3      H2             14.6254627305       31.6980218208       72.4588930766  TIP3      692             0.0000000000
     19427       829  TIP3      OH2            16.1977986664       30.8782992175       80.1312156311  TIP3      693             0.0000000000
     19428       829  TIP3      H1             16.4795096272       30.2656851628       79.4086489567  TIP3      693             0.0000000000
     19429       829  TIP3      H2             16.3210600388       31.7254726460       79.6739363700  TIP3      693             0.0000000000
     19430       830  TIP3      OH2            11.0311453351       28.0154082563       69.6009304349  TIP3      694             0.0000000000
     19431       830  TIP3      H1             10.3373067248       28.6953764531       69.5040322253  TIP3      694             0.0000000000
     19432       830  TIP3      H2             11.5856007842       28.4117117946       70.3064985369  TIP3      694             0.0000000000
     19433       831  TIP3      OH2            18.1961907572       27.4065242945       78.3085912518  TIP3      695             0.0000000000
     19434       831  TIP3      H1             17.6188802478       28.1973844190       78.2247567681  TIP3      695             0.0000000000
     19435       831  TIP3      H2             18.8915530096       27.6489197190       77.6624619585  TIP3      695             0.0000000000
     19436       832  TIP3      OH2            14.6471983977       28.0253545475       70.4374176534  TIP3      696             0.0000000000
     19437       832  TIP3      H1             13.9196162491       28.1249833379       71.0850558661  TIP3      696             0.0000000000
     19438       832  TIP3      H2             15.2935310816       27.4993966744       70.9450334863  TIP3      696             0.0000000000
     19439       833  TIP3      OH2            14.5324240799       26.3009042831       80.1053037641  TIP3      697             0.0000000000
     19440       833  TIP3      H1             14.3924742107       27.2442545787       80.2710661007  TIP3      697             0.0000000000
     19441       833  TIP3      H2             14.0546621779       26.1772352175       79.2641314561  TIP3      697             0.0000000000
     19442       834  TIP3      OH2             5.8037094141       28.7885889637       72.6739843341  TIP3      698             0.0000000000
     19443       834  TIP3      H1              5.1146529447       28.4584547303       72.0639144459  TIP3      698             0.0000000000
     19444       834  TIP3      H2              6.2601787824       27.9611971514       72.9573308919  TIP3      698             0.0000000000
     19445       835  TIP3      OH2             6.7176158294       31.6632059803       75.2190844501  TIP3      699             0.0000000000
     19446       835  TIP3      H1              6.7930498576       31.8207296723       74.2612631187  TIP3      699             0.0000000000
     19447       835  TIP3      H2              7.6310469789       31.6352412054       75.5504092626  TIP3      699             0.0000000000
     19448       836  TIP3      OH2             6.3232507650       27.1818110506       76.3121495016  TIP3      700             0.0000000000
     19449       836  TIP3      H1              6.4466674126       27.3367014962       75.3511442539  TIP3      700             0.0000000000
     19450       836  TIP3      H2              6.4168114449       28.0707653929       76.7194110466  TIP3      700             0.0000000000
     19451       837  TIP3      OH2            12.2558563803       33.0557317051       77.0591565746  TIP3      701             0.0000000000
     19452       837  TIP3      H1             12.1562439008       33.8744992573       77.5892882778  TIP3      701             0.0000000000
     19453       837  TIP3      H2             11.6355817016       33.1876998028       76.3289058091  TIP3      701             0.0000000000
     19454       838  TIP3      OH2             7.0198405625       31.6513934289       80.9895905939  TIP3      702             0.0000000000
     19455       838  TIP3      H1              6.4186923515       32.3097466841       81.4179385060  TIP3      702             0.0000000000
     19456       838  TIP3      H2              6.5667697269       31.4847615463       80.1364143068  TIP3      702             0.0000000000
     19457       839  TIP3      OH2             4.3035579166       28.0093249767       79.9286067766  TIP3      703             0.0000000000
     19458       839  TIP3      H1              4.4746022679       28.5806756806       80.7135787613  TIP3      703             0.0000000000
     19459       839  TIP3      H2              3.4545908959       27.5957833409       80.1813445849  TIP3      703             0.0000000000
     19460       840  TIP3      OH2            10.5693618734       34.2695717717       71.4298347314  TIP3      704             0.0000000000
     19461       840  TIP3      H1             10.5264114993       34.0842126247       72.3805264119  TIP3      704             0.0000000000
     19462       840  TIP3      H2             10.2353804937       35.1807142617       71.4839433127  TIP3      704             0.0000000000
     19463       841  TIP3      OH2             5.6202066272       33.8098229781       81.9409843920  TIP3      705             0.0000000000
     19464       841  TIP3      H1              5.7372671899       34.3426663345       81.1306564457  TIP3      705             0.0000000000
     19465       841  TIP3      H2              4.6422107871       33.7374364372       81.9794499820  TIP3      705             0.0000000000
     19466       842  TIP3      OH2            16.4691536773       19.2737137341       68.7742929962  TIP3      706             0.0000000000
     19467       842  TIP3      H1             15.5350621581       19.5762870569       68.8345672835  TIP3      706             0.0000000000
     19468       842  TIP3      H2             16.9274712992       20.1033546032       68.5730047546  TIP3      706             0.0000000000
     19469       843  TIP3      OH2             3.7774307941       27.7393467909       70.9228648451  TIP3      707             0.0000000000
     19470       843  TIP3      H1              3.7264430998       28.0241219170       69.9998145245  TIP3      707             0.0000000000
     19471       843  TIP3      H2              3.5926908035       26.7813340344       70.8517037927  TIP3      707             0.0000000000
     19472       844  TIP3      OH2             1.3726416503       29.9549575823       80.1796748846  TIP3      708             0.0000000000
     19473       844  TIP3      H1              0.5550295105       30.0056389496       79.6628578461  TIP3      708             0.0000000000
     19474       844  TIP3      H2              1.6271787329       29.0199107312       80.0326213421  TIP3      708             0.0000000000
     19475       845  TIP3      OH2             0.9389932694       33.3585273088       75.9636724817  TIP3      709             0.0000000000
     19476       845  TIP3      H1              1.8644583512       33.1378406110       75.7599002167  TIP3      709             0.0000000000
     19477       845  TIP3      H2              1.0006565447       33.5432223123       76.9228943445  TIP3      709             0.0000000000
     19478       846  TIP3      OH2            18.8717201419       33.6489387941       81.5683511521  TIP3      710             0.0000000000
     19479       846  TIP3      H1             18.7747653084       32.6849778313       81.5311336090  TIP3      710             0.0000000000
     19480       846  TIP3      H2             18.0143755207       33.8696030420       82.0016745730  TIP3      710             0.0000000000
     19481       847  TIP3      OH2             9.2945482365       33.2198318812       80.4088357534  TIP3      711             0.0000000000
     19482       847  TIP3      H1              9.4477181073       34.0135743732       80.9783429459  TIP3      711             0.0000000000
     19483       847  TIP3      H2              8.4616900581       32.8528876299       80.7718143200  TIP3      711             0.0000000000
     19484       848  TIP3      OH2            10.0211821683       36.8272238797       69.7429877406  TIP3      712             0.0000000000
     19485       848  TIP3      H1             10.5199329348       37.3419437017       69.0923389790  TIP3      712             0.0000000000
     19486       848  TIP3      H2              9.8443561222       37.5381144594       70.3923658339  TIP3      712             0.0000000000
     19487       849  TIP3      OH2             4.1912088093       35.7137745083       71.9718705085  TIP3      713             0.0000000000
     19488       849  TIP3      H1              4.5371255795       35.5511550730       72.8770715639  TIP3      713             0.0000000000
     19489       849  TIP3      H2              3.2844080540       35.3724021676       72.0660232168  TIP3      713             0.0000000000
     19490       850  TIP3      OH2            14.7148210982       35.7493764775       66.8999377440  TIP3      714             0.0000000000
     19491       850  TIP3      H1             14.3002035698       35.1685511638       66.2142765022  TIP3      714             0.0000000000
     19492       850  TIP3      H2             14.4831936585       35.2440448595       67.6845005278  TIP3      714             0.0000000000
     19493       851  TIP3      OH2            13.1165648371       36.1468553955       70.6455750729  TIP3      715             0.0000000000
     19494       851  TIP3      H1             12.1728876986       36.0203483467       70.8320687971  TIP3      715             0.0000000000
     19495       851  TIP3      H2             13.5053325988       35.5547405563       71.3261628630  TIP3      715             0.0000000000
     19496       852  TIP3      OH2            16.4177247135       24.7575573431       81.5894892352  TIP3      716             0.0000000000
     19497       852  TIP3      H1             15.6447260928       25.2507989825       81.2661960267  TIP3      716             0.0000000000
     19498       852  TIP3      H2             16.3061787193       23.8815529823       81.1732203484  TIP3      716             0.0000000000
     19499       853  TIP3      OH2             3.5340677215       31.5427410160       80.3491280872  TIP3      717             0.0000000000
     19500       853  TIP3      H1              3.7569716431       31.4198415298       81.2890493503  TIP3      717             0.0000000000
     19501       853  TIP3      H2              2.6519175178       31.0895177065       80.2834652521  TIP3      717             0.0000000000
     19502       854  TIP3      OH2             5.9342119468       20.1076328328       76.1973241038  TIP3      718             0.0000000000
     19503       854  TIP3      H1              5.0854435973       20.1829189565       75.7012446689  TIP3      718             0.0000000000
     19504       854  TIP3      H2              5.6785893807       20.5563951218       77.0239868309  TIP3      718             0.0000000000
     19505       855  TIP3      OH2            10.5397610469       19.5777314042       79.2892530448  TIP3      719             0.0000000000
     19506       855  TIP3      H1             11.0645498660       19.0946468851       79.9716888293  TIP3      719             0.0000000000
     19507       855  TIP3      H2              9.6286018130       19.5715223188       79.6321453968  TIP3      719             0.0000000000
     19508       856  TIP3      OH2            13.6423700757       23.6931382833       80.5385865746  TIP3      720             0.0000000000
     19509       856  TIP3      H1             13.1067436109       23.5098226948       81.3354357240  TIP3      720             0.0000000000
     19510       856  TIP3      H2             13.8383300963       24.6393276790       80.6320448461  TIP3      720             0.0000000000
     19511       857  TIP3      OH2            10.5500846641       21.6540513166       67.0300435607  TIP3      721             0.0000000000
     19512       857  TIP3      H1              9.9553344625       21.4988715586       67.8040243857  TIP3      721             0.0000000000
     19513       857  TIP3      H2              9.9608025137       22.0478899230       66.3802810701  TIP3      721             0.0000000000
     19514       858  TIP3      OH2             6.1286117323       24.7379631285       77.3414617143  TIP3      722             0.0000000000
     19515       858  TIP3      H1              5.5942329958       24.9406819907       78.1295024195  TIP3      722             0.0000000000
     19516       858  TIP3      H2              6.2409871660       25.6531269784       76.9776123450  TIP3      722             0.0000000000
     19517       859  TIP3      OH2             5.7705855143       24.6806632961       72.0460749042  TIP3      723             0.0000000000
     19518       859  TIP3      H1              4.8043842106       24.8350240789       71.9223872677  TIP3      723             0.0000000000
     19519       859  TIP3      H2              5.9981634668       24.3625990157       71.1340986377  TIP3      723             0.0000000000
     19520       860  TIP3      OH2            11.5897843975       25.9061045818       71.2501959339  TIP3      724             0.0000000000
     19521       860  TIP3      H1             11.5394338557       26.5888515434       70.5475928708  TIP3      724             0.0000000000
     19522       860  TIP3      H2             11.8984076596       25.1183729434       70.7853297583  TIP3      724             0.0000000000
     19523       861  TIP3      OH2            10.6590064239       26.3852817555       82.0236508050  TIP3      725             0.0000000000
     19524       861  TIP3      H1             10.0734959203       25.6262664100       82.1969954126  TIP3      725             0.0000000000
     19525       861  TIP3      H2             11.3862397758       26.1389019506       82.6365151643  TIP3      725             0.0000000000
     19526       862  TIP3      OH2            12.7377197673       25.1918421104       73.9625138762  TIP3      726             0.0000000000
     19527       862  TIP3      H1             12.3985826428       25.9100805740       73.3933076402  TIP3      726             0.0000000000
     19528       862  TIP3      H2             13.0011795602       24.5476311270       73.2683328367  TIP3      726             0.0000000000
     19529       863  TIP3      OH2             3.0262819581       24.7832676962       78.5846773196  TIP3      727             0.0000000000
     19530       863  TIP3      H1              2.7725759549       25.0341354215       79.4868827181  TIP3      727             0.0000000000
     19531       863  TIP3      H2              2.9447349623       23.8071428259       78.6411730040  TIP3      727             0.0000000000
     19532       864  TIP3      OH2             1.6802395161       22.5864329470       73.1718583166  TIP3      728             0.0000000000
     19533       864  TIP3      H1              1.6807996969       22.4460339674       74.1527473835  TIP3      728             0.0000000000
     19534       864  TIP3      H2              2.4549053483       22.0583563604       72.9243577498  TIP3      728             0.0000000000
     19535       865  TIP3      OH2             1.3745351114       23.3599728545       67.9016567051  TIP3      729             0.0000000000
     19536       865  TIP3      H1              1.7249307379       23.3571189975       66.9869219234  TIP3      729             0.0000000000
     19537       865  TIP3      H2              1.8811104910       24.0984911155       68.2715435032  TIP3      729             0.0000000000
     19538       866  TIP3      OH2            11.8203676964       26.4907288916       78.0721359073  TIP3      730             0.0000000000
     19539       866  TIP3      H1             12.3753217540       25.8300658354       77.5835959613  TIP3      730             0.0000000000
     19540       866  TIP3      H2             11.2612306945       25.8773455563       78.6112850110  TIP3      730             0.0000000000
     19541       867  TIP3      OH2             8.4799989304       22.5630700618       73.1486730959  TIP3      731             0.0000000000
     19542       867  TIP3      H1              7.7779021042       22.7374217844       73.7846951638  TIP3      731             0.0000000000
     19543       867  TIP3      H2              9.2041103652       22.2006689253       73.7121903213  TIP3      731             0.0000000000
     19544       868  TIP3      OH2             3.1348162877       24.8600551303       71.6611670221  TIP3      732             0.0000000000
     19545       868  TIP3      H1              2.2748000776       25.2993642155       71.4418950808  TIP3      732             0.0000000000
     19546       868  TIP3      H2              2.9579118219       23.9634298617       71.3361372887  TIP3      732             0.0000000000
     19547       869  TIP3      OH2             6.3157916592       23.7466468066       69.5419168478  TIP3      733             0.0000000000
     19548       869  TIP3      H1              7.2476151186       23.4895759992       69.5667380576  TIP3      733             0.0000000000
     19549       869  TIP3      H2              5.9821701913       23.2468972081       68.7705913864  TIP3      733             0.0000000000
     19550       870  TIP3      OH2            12.9422147174       21.9180955405       76.4482432250  TIP3      734             0.0000000000
     19551       870  TIP3      H1             12.3037179740       21.6777852536       77.1458340126  TIP3      734             0.0000000000
     19552       870  TIP3      H2             12.8829448922       21.2070506223       75.8004366745  TIP3      734             0.0000000000
     19553       871  TIP3      OH2            15.8151677601       37.6435098351       82.7568962294  TIP3      735             0.0000000000
     19554       871  TIP3      H1             16.2668580886       37.9047989386       81.9237148242  TIP3      735             0.0000000000
     19555       871  TIP3      H2             16.3752186541       38.1046859383       83.4020082809  TIP3      735             0.0000000000
     19556       872  TIP3      OH2             4.1300590905       29.3329939500       82.3370126951  TIP3      736             0.0000000000
     19557       872  TIP3      H1              4.6524812129       29.5662695280       83.1385568382  TIP3      736             0.0000000000
     19558       872  TIP3      H2              3.2204469564       29.6159677513       82.5087075835  TIP3      736             0.0000000000
     19559       873  TIP3      OH2             9.2769244119       25.2439465696       74.5414032927  TIP3      737             0.0000000000
     19560       873  TIP3      H1             10.2248682214       25.0110144496       74.4834415392  TIP3      737             0.0000000000
     19561       873  TIP3      H2              8.9550309152       24.5765827579       75.1666758542  TIP3      737             0.0000000000
     19562       874  TIP3      OH2             4.9042182740       21.3066603583       70.7038434517  TIP3      738             0.0000000000
     19563       874  TIP3      H1              4.8855924968       20.4210954121       71.0769738691  TIP3      738             0.0000000000
     19564       874  TIP3      H2              5.0812171616       21.1436074823       69.7558801346  TIP3      738             0.0000000000
     19565       875  TIP3      OH2             8.2181024265       23.0737968160       76.8852743135  TIP3      739             0.0000000000
     19566       875  TIP3      H1              7.3935508763       23.6113540396       76.9313960907  TIP3      739             0.0000000000
     19567       875  TIP3      H2              8.8278440826       23.5688623299       77.4597561938  TIP3      739             0.0000000000
     19568       876  TIP3      OH2             9.1177189970       30.1378393497       69.4586728626  TIP3      740             0.0000000000
     19569       876  TIP3      H1              8.4207023642       29.6958261056       68.9364558905  TIP3      740             0.0000000000
     19570       876  TIP3      H2              8.6047659134       30.4061042347       70.2546376240  TIP3      740             0.0000000000
     19571       877  TIP3      OH2            16.5723059635       29.4902131840       77.9527980485  TIP3      741             0.0000000000
     19572       877  TIP3      H1             17.1041585364       30.1211263909       77.4058941157  TIP3      741             0.0000000000
     19573       877  TIP3      H2             15.9091139200       29.1998694853       77.3037732834  TIP3      741             0.0000000000
     19574       878  TIP3      OH2            12.2499358272       23.5040484104       68.2309104972  TIP3      742             0.0000000000
     19575       878  TIP3      H1             11.5457247168       23.0179768914       67.7690084051  TIP3      742             0.0000000000
     19576       878  TIP3      H2             12.8511744824       23.6378916587       67.4830111365  TIP3      742             0.0000000000
     19577       879  TIP3      OH2             9.7523598805       30.4429373624       80.5585325209  TIP3      743             0.0000000000
     19578       879  TIP3      H1              9.3776750385       30.2939830039       81.4438771466  TIP3      743             0.0000000000
     19579       879  TIP3      H2              9.7007709838       31.4105885433       80.4697520847  TIP3      743             0.0000000000
     19580       880  TIP3      OH2             4.1276273520       29.1268556936       74.8903491055  TIP3      744             0.0000000000
     19581       880  TIP3      H1              4.8647161981       29.0828134052       74.2528070535  TIP3      744             0.0000000000
     19582       880  TIP3      H2              4.3628089553       28.4228413915       75.5258090153  TIP3      744             0.0000000000
     19583       881  TIP3      OH2            11.5300373857       31.2036319394       68.2515578300  TIP3      745             0.0000000000
     19584       881  TIP3      H1             11.1562014592       32.1068883189       68.2138908300  TIP3      745             0.0000000000
     19585       881  TIP3      H2             10.7662528368       30.6852346135       68.5608785071  TIP3      745             0.0000000000
     19586       882  TIP3      OH2             1.7068651242       27.2137194822       80.0366304073  TIP3      746             0.0000000000
     19587       882  TIP3      H1              1.7021029520       26.8557749468       80.9471462999  TIP3      746             0.0000000000
     19588       882  TIP3      H2              0.7641836092       27.0672236293       79.7876996206  TIP3      746             0.0000000000
     19589       883  TIP3      OH2             7.4606869763       27.4382050251       81.9166319698  TIP3      747             0.0000000000
     19590       883  TIP3      H1              6.9783685949       27.0338920542       81.1725035223  TIP3      747             0.0000000000
     19591       883  TIP3      H2              8.2920850980       26.9481278159       81.8350216703  TIP3      747             0.0000000000
     19592       884  TIP3      OH2            12.9749981063       32.4148478889       80.7364593699  TIP3      748             0.0000000000
     19593       884  TIP3      H1             12.2348366336       32.6433395551       80.1576730189  TIP3      748             0.0000000000
     19594       884  TIP3      H2             12.7534463237       32.9823462186       81.5047774294  TIP3      748             0.0000000000
     19595       885  TIP3      OH2            18.1265833543       23.9468542139       69.2904968639  TIP3      749             0.0000000000
     19596       885  TIP3      H1             17.9229784612       24.2589983346       68.3824694882  TIP3      749             0.0000000000
     19597       885  TIP3      H2             18.6411689913       24.6967553906       69.6289028271  TIP3      749             0.0000000000
     19598       886  TIP3      OH2            18.6375128903       30.6750759523       81.5060635345  TIP3      750             0.0000000000
     19599       886  TIP3      H1             17.7052905837       30.7823455834       81.2088085062  TIP3      750             0.0000000000
     19600       886  TIP3      H2             19.0985416658       30.5430651426       80.6439264393  TIP3      750             0.0000000000
     19601       887  TIP3      OH2            16.2336662464       33.7391014676       69.5226218147  TIP3      751             0.0000000000
     19602       887  TIP3      H1             16.0550092231       33.2365601683       70.3335792724  TIP3      751             0.0000000000
     19603       887  TIP3      H2             15.6390101603       33.2817930136       68.8921516216  TIP3      751             0.0000000000
     19604       888  TIP3      OH2            14.1027619040       28.3940287588       76.2223958615  TIP3      752             0.0000000000
     19605       888  TIP3      H1             13.1706810958       28.1533962988       76.0879833527  TIP3      752             0.0000000000
     19606       888  TIP3      H2             14.5577977878       27.7809031534       75.5933081958  TIP3      752             0.0000000000
     19607       889  TIP3      OH2             6.0343379871       32.9557936490       72.7553714875  TIP3      753             0.0000000000
     19608       889  TIP3      H1              6.6172640673       33.6918443071       72.4567663447  TIP3      753             0.0000000000
     19609       889  TIP3      H2              5.2258547868       33.1385234507       72.2664677057  TIP3      753             0.0000000000
     19610       890  TIP3      OH2             7.6015276250       30.7694284598       71.9824378081  TIP3      754             0.0000000000
     19611       890  TIP3      H1              7.1090697873       31.6032503879       72.1022900774  TIP3      754             0.0000000000
     19612       890  TIP3      H2              7.0117183545       30.1062763389       72.3992151972  TIP3      754             0.0000000000
     19613       891  TIP3      OH2             8.1496897107       35.0111982126       78.7954705995  TIP3      755             0.0000000000
     19614       891  TIP3      H1              8.9019974327       35.4251883197       78.3244373771  TIP3      755             0.0000000000
     19615       891  TIP3      H2              8.6323364875       34.3396986763       79.3349671440  TIP3      755             0.0000000000
     19616       892  TIP3      OH2             7.1067132486       35.1809178776       71.7155283988  TIP3      756             0.0000000000
     19617       892  TIP3      H1              6.2085450267       35.5471870377       71.7164973632  TIP3      756             0.0000000000
     19618       892  TIP3      H2              7.5837603665       35.9316394761       72.1196177843  TIP3      756             0.0000000000
     19619       893  TIP3      OH2            11.9954402044       30.5135624983       77.8078654145  TIP3      757             0.0000000000
     19620       893  TIP3      H1             11.9627046626       31.4949552186       77.7647743471  TIP3      757             0.0000000000
     19621       893  TIP3      H2             12.9454679566       30.3788626643       77.6472291621  TIP3      757             0.0000000000
     19622       894  TIP3      OH2            14.5077947484       32.3161900276       68.0110777128  TIP3      758             0.0000000000
     19623       894  TIP3      H1             14.6816438361       31.6019854126       68.6702395633  TIP3      758             0.0000000000
     19624       894  TIP3      H2             13.6121846179       32.0673243956       67.7430292562  TIP3      758             0.0000000000
     19625       895  TIP3      OH2            14.7416211033       35.2316079702       80.0516573170  TIP3      759             0.0000000000
     19626       895  TIP3      H1             13.8418207894       34.9321734405       79.8160015378  TIP3      759             0.0000000000
     19627       895  TIP3      H2             14.9102857617       35.9042071630       79.3702552295  TIP3      759             0.0000000000
     19628       896  TIP3      OH2             2.5539433902       22.2765770768       79.5183128062  TIP3      760             0.0000000000
     19629       896  TIP3      H1              2.2675713671       22.8526279398       80.2729303640  TIP3      760             0.0000000000
     19630       896  TIP3      H2              2.0169935242       21.4840000515       79.6849691971  TIP3      760             0.0000000000
     19631       897  TIP3      OH2            15.1423643181       30.5141142601       69.7924476260  TIP3      761             0.0000000000
     19632       897  TIP3      H1             14.8391769449       29.6001801475       69.9925651695  TIP3      761             0.0000000000
     19633       897  TIP3      H2             16.1090844931       30.3456543668       69.6638798260  TIP3      761             0.0000000000
     19634       898  TIP3      OH2             2.3435885417       33.5158829186       78.5724114017  TIP3      762             0.0000000000
     19635       898  TIP3      H1              2.8170980843       32.7269501092       78.9039450438  TIP3      762             0.0000000000
     19636       898  TIP3      H2              3.0636253254       34.1626162439       78.5266337956  TIP3      762             0.0000000000
     19637       899  TIP3      OH2             6.8459359156       32.0259039706       68.0509304347  TIP3      763             0.0000000000
     19638       899  TIP3      H1              7.8021659343       32.0751050570       68.1634302398  TIP3      763             0.0000000000
     19639       899  TIP3      H2              6.5801211250       32.9479792919       68.0098525554  TIP3      763             0.0000000000
     19640       900  TIP3      OH2            11.6437588689       22.0981689881       79.0148364730  TIP3      764             0.0000000000
     19641       900  TIP3      H1             12.0049259874       22.4288775425       79.8600045003  TIP3      764             0.0000000000
     19642       900  TIP3      H2             11.2044226442       21.2639717318       79.2831468732  TIP3      764             0.0000000000
     19643       901  TIP3      OH2            12.3597828269       21.9242628686       70.6076524165  TIP3      765             0.0000000000
     19644       901  TIP3      H1             12.4405532683       22.4610467892       69.7886314385  TIP3      765             0.0000000000
     19645       901  TIP3      H2             12.9253616985       22.4444717118       71.2275514919  TIP3      765             0.0000000000
     19646       902  TIP3      OH2            10.3182304635       33.8634846596       68.4751517046  TIP3      766             0.0000000000
     19647       902  TIP3      H1              9.7890048693       34.1404279815       69.2420910952  TIP3      766             0.0000000000
     19648       902  TIP3      H2             11.0954184944       34.4192570761       68.6148140299  TIP3      766             0.0000000000
     19649       903  TIP3      OH2             9.1982935859       23.8360899744       70.8208283120  TIP3      767             0.0000000000
     19650       903  TIP3      H1              9.3070327630       24.7163583397       71.1989455668  TIP3      767             0.0000000000
     19651       903  TIP3      H2              8.8168289372       23.3320547266       71.5727270968  TIP3      767             0.0000000000
     19652       904  TIP3      OH2            10.6573902498       24.6532362026       79.6017861393  TIP3      768             0.0000000000
     19653       904  TIP3      H1             10.9742068036       24.5824535592       80.5197320963  TIP3      768             0.0000000000
     19654       904  TIP3      H2             10.8251254518       23.7433532616       79.2777490425  TIP3      768             0.0000000000
     19655       905  TIP3      OH2            10.0375563942       20.4832947307       71.4065587510  TIP3      769             0.0000000000
     19656       905  TIP3      H1              9.8160238810       20.9195526684       72.2526881685  TIP3      769             0.0000000000
     19657       905  TIP3      H2             10.8932803293       20.9378256826       71.2308078001  TIP3      769             0.0000000000
     19658       906  TIP3      OH2             7.3994497190       35.8541818538       68.8479466768  TIP3      770             0.0000000000
     19659       906  TIP3      H1              8.0682380018       36.4706961853       69.2043362728  TIP3      770             0.0000000000
     19660       906  TIP3      H2              7.0437556281       35.4910476140       69.6760780236  TIP3      770             0.0000000000
     19661       907  TIP3      OH2            15.9747084795       22.1103518653       80.4989442776  TIP3      771             0.0000000000
     19662       907  TIP3      H1             15.0323114321       22.3859814183       80.4945026740  TIP3      771             0.0000000000
     19663       907  TIP3      H2             16.1969014727       22.1843176950       79.5468625935  TIP3      771             0.0000000000
     19664       908  TIP3      OH2            15.1315957120       26.5467125860       74.4475469456  TIP3      772             0.0000000000
     19665       908  TIP3      H1             14.3858119665       25.9156327409       74.4192310144  TIP3      772             0.0000000000
     19666       908  TIP3      H2             15.8183534332       26.0007859592       74.9031757704  TIP3      772             0.0000000000
     19667       909  TIP3      OH2             2.1092766876       24.9802856372       65.7505293939  TIP3      773             0.0000000000
     19668       909  TIP3      H1              2.8974800169       25.5113172861       65.9638910394  TIP3      773             0.0000000000
     19669       909  TIP3      H2              2.1915958903       24.9691076462       64.7886847343  TIP3      773             0.0000000000
     19670       910  TIP3      OH2            15.3261323290       35.4232054516       76.3121323186  TIP3      774             0.0000000000
     19671       910  TIP3      H1             15.1816319256       36.0056771498       75.5451726805  TIP3      774             0.0000000000
     19672       910  TIP3      H2             16.3047343605       35.4233064405       76.3796390715  TIP3      774             0.0000000000
     19673       911  TIP3      OH2             3.5011074809       19.8633166377       75.1271445322  TIP3      775             0.0000000000
     19674       911  TIP3      H1              3.6461728591       19.8134268534       74.1584546379  TIP3      775             0.0000000000
     19675       911  TIP3      H2              3.2057017010       18.9429829728       75.3116499577  TIP3      775             0.0000000000
     19676       912  TIP3      OH2             2.2845043823       33.5319528698       71.6366884182  TIP3      776             0.0000000000
     19677       912  TIP3      H1              1.7278764853       34.2408962872       71.2224556099  TIP3      776             0.0000000000
     19678       912  TIP3      H2              3.0482179304       33.5350679655       71.0482643245  TIP3      776             0.0000000000
     19679       913  TIP3      OH2             0.7577969162       36.1482668921       82.0503083918  TIP3      777             0.0000000000
     19680       913  TIP3      H1              1.4011041211       36.2911250316       82.7654541273  TIP3      777             0.0000000000
     19681       913  TIP3      H2              0.3186157788       35.3380495291       82.3408015057  TIP3      777             0.0000000000
     19682       914  TIP3      OH2             6.0835634991       35.0041353766       84.4723805467  TIP3      778             0.0000000000
     19683       914  TIP3      H1              7.0410107795       34.8014297236       84.4692467323  TIP3      778             0.0000000000
     19684       914  TIP3      H2              5.8562995150       34.5800499096       83.6234505467  TIP3      778             0.0000000000
     19685       915  TIP3      OH2            12.3878323054       34.0868530529       82.9359819300  TIP3      779             0.0000000000
     19686       915  TIP3      H1             12.0707009646       33.2063109139       83.2604669273  TIP3      779             0.0000000000
     19687       915  TIP3      H2             13.2748277795       34.0878714293       83.3491221875  TIP3      779             0.0000000000
     19688       916  TIP3      OH2             1.2714298437       30.1120780940       83.3959805580  TIP3      780             0.0000000000
     19689       916  TIP3      H1              0.8324536679       29.3684061092       82.9500492514  TIP3      780             0.0000000000
     19690       916  TIP3      H2              0.5541758171       30.7712541125       83.3796271717  TIP3      780             0.0000000000
     19691       917  TIP3      OH2             8.0924741783       29.9192428771       82.7384545418  TIP3      781             0.0000000000
     19692       917  TIP3      H1              7.6908381111       30.5109926095       82.0531865809  TIP3      781             0.0000000000
     19693       917  TIP3      H2              7.8617370696       29.0144781466       82.4180887599  TIP3      781             0.0000000000
     19694       918  TIP3      OH2            13.7604025839       29.7322751061       80.3868955598  TIP3      782             0.0000000000
     19695       918  TIP3      H1             14.6981379091       30.0473684192       80.3394781258  TIP3      782             0.0000000000
     19696       918  TIP3      H2             13.3404986415       30.6125895571       80.5660323019  TIP3      782             0.0000000000
     19697       919  TIP3      OH2             1.9005154948       26.8482597574       83.3491057588  TIP3      783             0.0000000000
     19698       919  TIP3      H1              2.5695279558       26.1505057485       83.4526451559  TIP3      783             0.0000000000
     19699       919  TIP3      H2              2.2601519046       27.5504083668       83.9294937679  TIP3      783             0.0000000000
     19700       920  TIP3      OH2             7.1420917903       28.4955183716       68.1600555898  TIP3      784             0.0000000000
     19701       920  TIP3      H1              6.9820968159       27.9618217031       68.9502760699  TIP3      784             0.0000000000
     19702       920  TIP3      H2              7.6328301728       27.8808710451       67.5955739028  TIP3      784             0.0000000000
     19703       921  TIP3      OH2             6.3336425216       26.2780202027       79.6787775711  TIP3      785             0.0000000000
     19704       921  TIP3      H1              5.5304657012       26.8415428327       79.7747736187  TIP3      785             0.0000000000
     19705       921  TIP3      H2              6.8275451498       26.7914223641       79.0199545465  TIP3      785             0.0000000000
     19706       922  TIP3      OH2            11.6908950664       28.9027885254       83.5648366700  TIP3      786             0.0000000000
     19707       922  TIP3      H1             12.4854408204       28.4036222993       83.3059371103  TIP3      786             0.0000000000
     19708       922  TIP3      H2             11.2138849457       28.2588174784       84.1217981736  TIP3      786             0.0000000000
     19709       923  TIP3      OH2             6.7045400129       24.0608193053       81.0797718049  TIP3      787             0.0000000000
     19710       923  TIP3      H1              6.9307758487       23.3594945802       80.4307604922  TIP3      787             0.0000000000
     19711       923  TIP3      H2              6.5399143061       24.8362270045       80.4931517356  TIP3      787             0.0000000000
     19712       924  TIP3      OH2             7.3339904017       22.0495516355       79.2336528448  TIP3      788             0.0000000000
     19713       924  TIP3      H1              7.6838705307       22.2537464499       78.3373008447  TIP3      788             0.0000000000
     19714       924  TIP3      H2              6.3731000524       22.0085034187       79.0257970429  TIP3      788             0.0000000000
     19715       925  TIP3      OH2             8.8139467888       27.8829576149       79.2103367809  TIP3      789             0.0000000000
     19716       925  TIP3      H1              9.1547200964       28.0241703234       78.3201645192  TIP3      789             0.0000000000
     19717       925  TIP3      H2              8.0362450873       28.4682404360       79.1742459729  TIP3      789             0.0000000000
     19718       926  TIP3      OH2            12.7624171888       25.3149418267       83.7570848473  TIP3      790             0.0000000000
     19719       926  TIP3      H1             12.7226462369       24.4622245848       84.2473772995  TIP3      790             0.0000000000
     19720       926  TIP3      H2             13.4341678059       25.7557558022       84.2831608369  TIP3      790             0.0000000000
     19721       927  TIP3      OH2            14.4323255164       28.4115196227       82.8715165202  TIP3      791             0.0000000000
     19722       927  TIP3      H1             14.1576436632       28.9243297723       82.0899856178  TIP3      791             0.0000000000
     19723       927  TIP3      H2             15.2640521247       28.0153885213       82.5568585603  TIP3      791             0.0000000000
     19724       928  TIP3      OH2             5.2426749975       24.7120960273       83.3071097493  TIP3      792             0.0000000000
     19725       928  TIP3      H1              4.4531770119       24.1478817784       83.1754394385  TIP3      792             0.0000000000
     19726       928  TIP3      H2              5.7374887195       24.5499296630       82.4789679778  TIP3      792             0.0000000000
     19727       929  TIP3      OH2             7.7705694095       19.3244365631       79.3405477474  TIP3      793             0.0000000000
     19728       929  TIP3      H1              7.6041491774       20.2900555913       79.2958992054  TIP3      793             0.0000000000
     19729       929  TIP3      H2              7.3783051680       19.0621542640       78.4950696222  TIP3      793             0.0000000000
     19730       930  TIP3      OH2             8.8482322040       24.1377057176       82.7567916829  TIP3      794             0.0000000000
     19731       930  TIP3      H1              8.2986472774       24.3614894422       83.5280814043  TIP3      794             0.0000000000
     19732       930  TIP3      H2              8.1749861570       23.7964755574       82.1328281237  TIP3      794             0.0000000000
     19733       931  TIP3      OH2            11.2821881700       23.1867456602       82.0140775769  TIP3      795             0.0000000000
     19734       931  TIP3      H1             10.3405293425       23.2978272893       82.2737163764  TIP3      795             0.0000000000
     19735       931  TIP3      H2             11.5864077660       22.5080101677       82.6571508650  TIP3      795             0.0000000000
     19736       932  TIP3      OH2            12.7605705941       21.3871739595       83.6186112038  TIP3      796             0.0000000000
     19737       932  TIP3      H1             12.9510815013       20.4549070256       83.8457601026  TIP3      796             0.0000000000
     19738       932  TIP3      H2             12.9498424951       21.8857990853       84.4451147013  TIP3      796             0.0000000000
     19739       933  TIP3      OH2             3.0098598511       22.8710210733       83.3116186624  TIP3      797             0.0000000000
     19740       933  TIP3      H1              2.9541095009       22.0057111241       82.8635811740  TIP3      797             0.0000000000
     19741       933  TIP3      H2              2.9114589132       22.5843850847       84.2533079425  TIP3      797             0.0000000000
     19742       934  TIP3      OH2             7.6305280121       18.6954801891       82.7185519043  TIP3      798             0.0000000000
     19743       934  TIP3      H1              8.1858504884       17.8813671421       82.7771531377  TIP3      798             0.0000000000
     19744       934  TIP3      H2              8.2505537259       19.2561365071       82.2315352129  TIP3      798             0.0000000000
     19745       935  TIP3      OH2             7.5613157889       20.2585083048       85.0685655107  TIP3      799             0.0000000000
     19746       935  TIP3      H1              7.6866649319       19.8164181812       84.2096823206  TIP3      799             0.0000000000
     19747       935  TIP3      H2              7.2729166796       21.1604629457       84.7977989039  TIP3      799             0.0000000000
     19748       936  TIP3      OH2             0.4027886082       37.7357680017       71.8479266217  TIP3      800             0.0000000000
     19749       936  TIP3      H1             -0.5583579812       37.7958390705       72.0374952449  TIP3      800             0.0000000000
     19750       936  TIP3      H2              0.6830814023       37.0873404248       72.5264586552  TIP3      800             0.0000000000
     19751       937  TIP3      OH2             1.4289652516       35.8010272137       73.5532487182  TIP3      801             0.0000000000
     19752       937  TIP3      H1              0.9619530923       35.0328663102       73.9145414581  TIP3      801             0.0000000000
     19753       937  TIP3      H2              1.9904123114       36.0779861026       74.3134810487  TIP3      801             0.0000000000
     19754       938  TIP3      OH2            18.0215673482       36.2864351737       76.2483801049  TIP3      802             0.0000000000
     19755       938  TIP3      H1             18.4826940630       36.4371848070       77.0868882221  TIP3      802             0.0000000000
     19756       938  TIP3      H2             17.7905659521       37.1786996257       75.9544016739  TIP3      802             0.0000000000
     19757       939  TIP3      OH2            17.7464110631       35.7387832217       79.2601186882  TIP3      803             0.0000000000
     19758       939  TIP3      H1             17.5309066816       34.8922189412       78.8054090589  TIP3      803             0.0000000000
     19759       939  TIP3      H2             18.0751459819       35.3894159981       80.1082679075  TIP3      803             0.0000000000
     19760       940  TIP3      OH2            16.5936593446       31.3462266144       84.2217431667  TIP3      804             0.0000000000
     19761       940  TIP3      H1             15.8092960141       31.5200528822       84.7931859865  TIP3      804             0.0000000000
     19762       940  TIP3      H2             17.0087355213       32.2416936475       84.1860021762  TIP3      804             0.0000000000
     19763       941  TIP3      OH2            17.7530471284       29.9277083742       69.5869013471  TIP3      805             0.0000000000
     19764       941  TIP3      H1             18.6492632254       30.3324226842       69.5309937634  TIP3      805             0.0000000000
     19765       941  TIP3      H2             17.9118304230       29.1573967548       70.1628134351  TIP3      805             0.0000000000
     19766       942  TIP3      OH2            18.5720394633       27.6250151508       71.5229984081  TIP3      806             0.0000000000
     19767       942  TIP3      H1             17.6604902539       27.3689683082       71.7956906513  TIP3      806             0.0000000000
     19768       942  TIP3      H2             18.9861682064       27.8260676069       72.3940889416  TIP3      806             0.0000000000
     19769       943  TIP3      OH2            18.2608948206       30.5652946328       76.2650854685  TIP3      807             0.0000000000
     19770       943  TIP3      H1             18.7954774622       29.8071131074       75.9629118123  TIP3      807             0.0000000000
     19771       943  TIP3      H2             18.6679422884       31.3178059286       75.7822584856  TIP3      807             0.0000000000
     19772       944  TIP3      OH2            16.4596532202       33.3921380780       78.5832332120  TIP3      808             0.0000000000
     19773       944  TIP3      H1             15.8122256727       33.8524086690       79.1503355243  TIP3      808             0.0000000000
     19774       944  TIP3      H2             15.8801700929       33.0460477956       77.8722538375  TIP3      808             0.0000000000
     19775       945  TIP3      OH2            17.8324757781       24.7327617794       66.5630033383  TIP3      809             0.0000000000
     19776       945  TIP3      H1             17.5256376656       25.5325261573       66.1070371114  TIP3      809             0.0000000000
     19777       945  TIP3      H2             17.2526780011       24.0162423788       66.2059198897  TIP3      809             0.0000000000
     19778       946  TIP3      OH2            16.2485632223       26.4723596320       72.0799157843  TIP3      810             0.0000000000
     19779       946  TIP3      H1             16.1265284046       25.5180574622       71.9039116942  TIP3      810             0.0000000000
     19780       946  TIP3      H2             15.9682146664       26.5419313171       73.0233467833  TIP3      810             0.0000000000
     19781       947  TIP3      OH2             1.1560417619       28.0666538859       76.3128266190  TIP3      811             0.0000000000
     19782       947  TIP3      H1              1.1975450350       28.2676135383       75.3564572038  TIP3      811             0.0000000000
     19783       947  TIP3      H2              2.1110620743       27.9608470525       76.5448279409  TIP3      811             0.0000000000
     19784       948  TIP3      OH2            17.4745624812       28.0884051824       81.9511140440  TIP3      812             0.0000000000
     19785       948  TIP3      H1             17.9916981217       27.2709142972       82.1335460410  TIP3      812             0.0000000000
     19786       948  TIP3      H2             18.1404654028       28.7543321999       81.6884690909  TIP3      812             0.0000000000
     19787       949  TIP3      OH2            18.5931219106       25.7875139363       82.9628934344  TIP3      813             0.0000000000
     19788       949  TIP3      H1             17.8422614575       25.3054218271       82.5415449826  TIP3      813             0.0000000000
     19789       949  TIP3      H2             19.3306944883       25.2177268993       82.6673653609  TIP3      813             0.0000000000
     19790       950  TIP3      OH2            16.2169710915       22.8238867528       65.4437688966  TIP3      814             0.0000000000
     19791       950  TIP3      H1             16.6965748708       21.9825920639       65.5080307744  TIP3      814             0.0000000000
     19792       950  TIP3      H2             15.5920390046       22.7143321505       64.7096011652  TIP3      814             0.0000000000
     19793       951  TIP3      OH2            16.2536259182       23.6924211058       71.2081034176  TIP3      815             0.0000000000
     19794       951  TIP3      H1             16.1606118993       22.7112946497       71.1215315551  TIP3      815             0.0000000000
     19795       951  TIP3      H2             16.8713431911       23.8384715438       70.4629119315  TIP3      815             0.0000000000
     19796       952  TIP3      OH2            16.8377978110       24.7741102891       75.6041538914  TIP3      816             0.0000000000
     19797       952  TIP3      H1             17.7694202017       24.9106648945       75.8962404053  TIP3      816             0.0000000000
     19798       952  TIP3      H2             16.4667908875       24.4164685230       76.4293369238  TIP3      816             0.0000000000
     19799       953  TIP3      OH2            16.7493907645       25.1738066456       78.4141265484  TIP3      817             0.0000000000
     19800       953  TIP3      H1             16.0185044274       25.4061200403       78.9993292537  TIP3      817             0.0000000000
     19801       953  TIP3      H2             17.2394777451       26.0339333549       78.3671258017  TIP3      817             0.0000000000
     19802       954  TIP3      OH2             1.5529446063       24.0334345592       81.4635384317  TIP3      818             0.0000000000
     19803       954  TIP3      H1              2.0383192571       23.8221969167       82.2903617002  TIP3      818             0.0000000000
     19804       954  TIP3      H2              0.6361926866       24.0068726333       81.7844344931  TIP3      818             0.0000000000
     19805       955  TIP3      OH2            18.8857194689       19.8991373078       83.8895374378  TIP3      819             0.0000000000
     19806       955  TIP3      H1             19.1627917405       19.1179246376       83.3667307411  TIP3      819             0.0000000000
     19807       955  TIP3      H2             18.7605023238       20.5796626638       83.1883472173  TIP3      819             0.0000000000
     19808       956  TIP3      OH2            15.9959813326       21.0150252194       70.9475416767  TIP3      820             0.0000000000
     19809       956  TIP3      H1             16.6763907235       20.7701130865       71.6144467787  TIP3      820             0.0000000000
     19810       956  TIP3      H2             15.7762540377       20.1552801246       70.5582583563  TIP3      820             0.0000000000
     19811       957  TIP3      OH2             1.8422816757       22.1291215697       75.7957030281  TIP3      821             0.0000000000
     19812       957  TIP3      H1              2.1984027303       21.2201837193       75.7091790186  TIP3      821             0.0000000000
     19813       957  TIP3      H2              2.6446742767       22.6454617702       76.0348035730  TIP3      821             0.0000000000
     19814       958  TIP3      OH2             0.6474612629       25.3639289388       77.0031295138  TIP3      822             0.0000000000
     19815       958  TIP3      H1              1.4834775783       24.8658761651       77.0999792823  TIP3      822             0.0000000000
     19816       958  TIP3      H2              0.9644134786       26.2220605496       76.6427193264  TIP3      822             0.0000000000
     19817       959  TIP3      OH2            18.0139185496       21.9122322750       82.2531595935  TIP3      823             0.0000000000
     19818       959  TIP3      H1             17.4618138970       22.4039725342       82.8993501660  TIP3      823             0.0000000000
     19819       959  TIP3      H2             17.3335336874       21.7085905918       81.5719775881  TIP3      823             0.0000000000
     19820       960  TIP3      OH2             1.1099468962       21.5788067500       69.8988036192  TIP3      824             0.0000000000
     19821       960  TIP3      H1              1.2632303589       22.2332034342       69.1831467422  TIP3      824             0.0000000000
     19822       960  TIP3      H2              1.5197735129       20.8152016801       69.4352268194  TIP3      824             0.0000000000
     19823       961  TIP3      OH2            15.8022593019       36.0010919583       72.8183109967  TIP3      825             0.0000000000
     19824       961  TIP3      H1             16.2298417011       36.0723086298       71.9434320502  TIP3      825             0.0000000000
     19825       961  TIP3      H2             15.8954389658       36.8949247518       73.2025432626  TIP3      825             0.0000000000
     19826       962  TIP3      OH2             0.3827588561       19.7855247501       78.5725444960  TIP3      826             0.0000000000
     19827       962  TIP3      H1             -0.3938951764       19.2420713355       78.7883112093  TIP3      826             0.0000000000
     19828       962  TIP3      H2             -0.0367324507       20.5299934917       78.1023537080  TIP3      826             0.0000000000
     19829       963  TIP3      OH2             3.0390859131       33.2483047804       82.7237106735  TIP3      827             0.0000000000
     19830       963  TIP3      H1              2.3025790914       33.5146855008       82.1601931536  TIP3      827             0.0000000000
     19831       963  TIP3      H2              2.8991755616       33.7762859217       83.5337883138  TIP3      827             0.0000000000
     19832       964  TIP3      OH2             5.5157360768       34.7028322368       79.0563227356  TIP3      828             0.0000000000
     19833       964  TIP3      H1              5.3007813228       35.5870873145       78.6868750845  TIP3      828             0.0000000000
     19834       964  TIP3      H2              6.4929142625       34.7065868217       78.9268573457  TIP3      828             0.0000000000
     19835       965  TIP3      OH2             9.4856952121       35.6614318515       81.7007140721  TIP3      829             0.0000000000
     19836       965  TIP3      H1              9.7180694005       35.5223175790       82.6453850316  TIP3      829             0.0000000000
     19837       965  TIP3      H2             10.3370144652       36.0480063178       81.4072034125  TIP3      829             0.0000000000
     19838       966  TIP3      OH2            11.8616782053       37.2493238725       81.2202914401  TIP3      830             0.0000000000
     19839       966  TIP3      H1             12.5867395196       36.6427565185       81.0138806883  TIP3      830             0.0000000000
     19840       966  TIP3      H2             12.1894636747       37.6896882887       82.0315690909  TIP3      830             0.0000000000
     19841       967  TIP3      OH2            17.3709819438       18.9918719399       80.6180940556  TIP3      831             0.0000000000
     19842       967  TIP3      H1             16.7318385160       19.4642369663       80.0635455846  TIP3      831             0.0000000000
     19843       967  TIP3      H2             17.4980585424       18.1277962077       80.1681381117  TIP3      831             0.0000000000
     19844       968  TIP3      OH2             2.9166008176       37.9422392357       78.9574419316  TIP3      832             0.0000000000
     19845       968  TIP3      H1              2.0781990928       38.3782151871       78.6742015535  TIP3      832             0.0000000000
     19846       968  TIP3      H2              2.9559513771       38.2604622468       79.8760066837  TIP3      832             0.0000000000
     19847       969  TIP3      OH2             5.2326497692       37.0980579742       77.7124395774  TIP3      833             0.0000000000
     19848       969  TIP3      H1              4.4022131677       37.4499157832       78.1137202219  TIP3      833             0.0000000000
     19849       969  TIP3      H2              5.4159942342       37.7608757103       77.0082241695  TIP3      833             0.0000000000
     19850       970  TIP3      OH2             9.9838659997       36.1771058646       77.1452152621  TIP3      834             0.0000000000
     19851       970  TIP3      H1              9.9240945395       36.2183713472       76.1603812396  TIP3      834             0.0000000000
     19852       970  TIP3      H2              9.9908135234       37.1242315460       77.3781703756  TIP3      834             0.0000000000
     19853       971  TIP3      OH2            12.2511590003       35.3937316911       78.4995497882  TIP3      835             0.0000000000
     19854       971  TIP3      H1             11.4620273500       35.6615573500       77.9787082638  TIP3      835             0.0000000000
     19855       971  TIP3      H2             12.8427510871       36.1518743374       78.3057502675  TIP3      835             0.0000000000
     19856       972  TIP3      OH2            14.1102031688       37.3993135914       77.9650982367  TIP3      836             0.0000000000
     19857       972  TIP3      H1             14.4792712869       38.2812603554       77.8093748917  TIP3      836             0.0000000000
     19858       972  TIP3      H2             14.5126815255       36.8940896430       77.2305345585  TIP3      836             0.0000000000
     19859       973  TIP3      OH2             2.9371043376       36.2919620834       75.7547761615  TIP3      837             0.0000000000
     19860       973  TIP3      H1              2.6137103667       35.7900381531       76.5216084792  TIP3      837             0.0000000000
     19861       973  TIP3      H2              3.6720775683       35.7289288552       75.4218152019  TIP3      837             0.0000000000
     19862       974  TIP3      OH2             4.7871158635       34.6631251429       74.5558414564  TIP3      838             0.0000000000
     19863       974  TIP3      H1              5.1432674148       33.7923701012       74.3027720674  TIP3      838             0.0000000000
     19864       974  TIP3      H2              5.4997175915       34.9155652001       75.1953628508  TIP3      838             0.0000000000
     19865       975  TIP3      OH2             6.9533184603       35.1856075416       76.0189888732  TIP3      839             0.0000000000
     19866       975  TIP3      H1              7.8001114975       35.1581675522       75.5383228872  TIP3      839             0.0000000000
     19867       975  TIP3      H2              7.2145670397       35.5178229249       76.8917041207  TIP3      839             0.0000000000
     19868       976  TIP3      OH2            10.3575912530       20.9417597196       74.1742631588  TIP3      840             0.0000000000
     19869       976  TIP3      H1              9.8197336899       20.3268048535       74.6970865432  TIP3      840             0.0000000000
     19870       976  TIP3      H2             11.2198834555       20.4897457095       74.1295142447  TIP3      840             0.0000000000
     19871       977  TIP3      OH2            15.9872290039       19.0219913936       74.8364771681  TIP3      841             0.0000000000
     19872       977  TIP3      H1             16.6783145541       19.5748524969       74.4058979873  TIP3      841             0.0000000000
     19873       977  TIP3      H2             15.1895342998       19.3270920971       74.3701354728  TIP3      841             0.0000000000
     19874       978  TIP3      OH2            17.5969959304       20.2506399087       73.0500040784  TIP3      842             0.0000000000
     19875       978  TIP3      H1             18.0983878770       19.5805292913       72.5247206289  TIP3      842             0.0000000000
     19876       978  TIP3      H2             18.3339454777       20.8482439681       73.3208135910  TIP3      842             0.0000000000
     19877       979  TIP3      OH2             3.4699835808       19.3368168356       72.4502190132  TIP3      843             0.0000000000
     19878       979  TIP3      H1              2.6383346587       19.4441385718       71.9741171811  TIP3      843             0.0000000000
     19879       979  TIP3      H2              3.7237588179       18.4176934960       72.1871772223  TIP3      843             0.0000000000
     19880       980  TIP3      OH2             2.0504178700       19.5544309602       68.3118775367  TIP3      844             0.0000000000
     19881       980  TIP3      H1              2.9423795688       19.2776287961       67.9859822422  TIP3      844             0.0000000000
     19882       980  TIP3      H2              1.6207111245       19.6123286762       67.4399550531  TIP3      844             0.0000000000
     19883       981  TIP3      OH2             7.6794138055       18.6198608571       72.4252051696  TIP3      845             0.0000000000
     19884       981  TIP3      H1              7.8236055442       19.2399449222       71.6971123308  TIP3      845             0.0000000000
     19885       981  TIP3      H2              8.2989732298       18.9900076204       73.0796088411  TIP3      845             0.0000000000
     19886       982  TIP3      OH2            12.9265748256       19.4251700726       73.7885923148  TIP3      846             0.0000000000
     19887       982  TIP3      H1             13.0615836520       19.3737576905       72.8395594084  TIP3      846             0.0000000000
     19888       982  TIP3      H2             12.5107316951       18.5504356577       73.9701667832  TIP3      846             0.0000000000
     19889       983  TIP3      OH2            13.7370744299       19.8583520101       69.3393278522  TIP3      847             0.0000000000
     19890       983  TIP3      H1             13.3290581243       20.5900140767       69.8466636710  TIP3      847             0.0000000000
     19891       983  TIP3      H2             13.5387164775       19.0696288590       69.8958065037  TIP3      847             0.0000000000
     19892       984  TIP3      OH2             1.3102467508       35.6918654527       70.2543929446  TIP3      848             0.0000000000
     19893       984  TIP3      H1              0.8117968465       35.6644125002       69.4203379774  TIP3      848             0.0000000000
     19894       984  TIP3      H2              0.8934071993       36.4716269975       70.6939534213  TIP3      848             0.0000000000
     19895       985  TIP3      OH2             9.0881693242       21.6660999579       69.2357513406  TIP3      849             0.0000000000
     19896       985  TIP3      H1              9.2500935294       21.2591591713       70.1096730571  TIP3      849             0.0000000000
     19897       985  TIP3      H2              9.2688951114       22.5958591766       69.4922029561  TIP3      849             0.0000000000
     19898       986  TIP3      OH2            17.0707705397       36.0645562570       70.3406461022  TIP3      850             0.0000000000
     19899       986  TIP3      H1             16.9073589097       35.2118927984       69.8603583955  TIP3      850             0.0000000000
     19900       986  TIP3      H2             16.4167275688       36.6727263385       69.9539730754  TIP3      850             0.0000000000
     19901       987  TIP3      OH2             2.4941636366       19.9377880037       82.0817503899  TIP3      851             0.0000000000
     19902       987  TIP3      H1              2.2879445766       18.9913996030       82.2386151529  TIP3      851             0.0000000000
     19903       987  TIP3      H2              3.2356248025       20.0711230123       82.6996758782  TIP3      851             0.0000000000
     19904       988  TIP3      OH2             4.9318601772       19.5904328747       83.7064516836  TIP3      852             0.0000000000
     19905       988  TIP3      H1              5.8400990017       19.3519483590       83.4496264192  TIP3      852             0.0000000000
     19906       988  TIP3      H2              4.6166594890       18.7194109207       84.0483884960  TIP3      852             0.0000000000
     19907       989  TIP3      OH2            13.1990330884       18.7054116781       83.8422410885  TIP3      853             0.0000000000
     19908       989  TIP3      H1             13.4407736844       18.1649948488       84.6332310331  TIP3      853             0.0000000000
     19909       989  TIP3      H2             14.0696051829       18.6802706835       83.3862974326  TIP3      853             0.0000000000
     19910       990  TIP3      OH2            16.4732661501       34.7286368148       82.0845974746  TIP3      854             0.0000000000
     19911       990  TIP3      H1             15.6495321582       34.7156714152       81.5454732352  TIP3      854             0.0000000000
     19912       990  TIP3      H2             16.4500495416       35.6327745080       82.4358551080  TIP3      854             0.0000000000
     19913       991  TIP3      OH2            30.7979011799       28.8389106119       71.8684850585  TIP3      855             0.0000000000
     19914       991  TIP3      H1             30.6539521200       29.7936115947       72.0336016225  TIP3      855             0.0000000000
     19915       991  TIP3      H2             29.9097275602       28.5283067685       71.6478058964  TIP3      855             0.0000000000
     19916       992  TIP3      OH2            29.5111802859       27.7008914817       76.1096608293  TIP3      856             0.0000000000
     19917       992  TIP3      H1             29.7219745085       27.0071227479       76.7637205382  TIP3      856             0.0000000000
     19918       992  TIP3      H2             29.1446886086       27.1946091876       75.3718714345  TIP3      856             0.0000000000
     19919       993  TIP3      OH2            22.2267471598       27.3208582610       77.2368935530  TIP3      857             0.0000000000
     19920       993  TIP3      H1             22.1295097768       26.3829200025       77.4874926026  TIP3      857             0.0000000000
     19921       993  TIP3      H2             22.7449725553       27.6547706639       78.0009764259  TIP3      857             0.0000000000
     19922       994  TIP3      OH2            33.1223208417       30.7785419875       74.5861089478  TIP3      858             0.0000000000
     19923       994  TIP3      H1             32.9537263036       29.9751956575       75.1076582773  TIP3      858             0.0000000000
     19924       994  TIP3      H2             33.5832047501       31.3376472969       75.2315554065  TIP3      858             0.0000000000
     19925       995  TIP3      OH2            22.9246470305       32.4848194916       75.4791090465  TIP3      859             0.0000000000
     19926       995  TIP3      H1             22.5737979448       31.5773015450       75.4068028858  TIP3      859             0.0000000000
     19927       995  TIP3      H2             23.8238413626       32.2532766015       75.7652099372  TIP3      859             0.0000000000
     19928       996  TIP3      OH2            19.9339071300       25.3906309497       71.0423560185  TIP3      860             0.0000000000
     19929       996  TIP3      H1             19.6872548971       26.3388533864       71.0461990127  TIP3      860             0.0000000000
     19930       996  TIP3      H2             19.2298431688       25.0565909638       71.6245596668  TIP3      860             0.0000000000
     19931       997  TIP3      OH2            19.9584886277       27.5513726068       73.7882066868  TIP3      861             0.0000000000
     19932       997  TIP3      H1             20.3315512725       26.6447997613       73.9289180181  TIP3      861             0.0000000000
     19933       997  TIP3      H2             20.7155127439       28.0035291793       73.3758538000  TIP3      861             0.0000000000
     19934       998  TIP3      OH2            30.8101229894       36.2858886165       74.5183546732  TIP3      862             0.0000000000
     19935       998  TIP3      H1             31.2322837635       35.7308925455       73.8246469749  TIP3      862             0.0000000000
     19936       998  TIP3      H2             30.5982637570       35.6257620601       75.1926917988  TIP3      862             0.0000000000
     19937       999  TIP3      OH2            27.6974138641       29.6697548303       76.4908283816  TIP3      863             0.0000000000
     19938       999  TIP3      H1             28.1830904469       28.8578586175       76.2161140263  TIP3      863             0.0000000000
     19939       999  TIP3      H2             28.4915512994       30.1813004448       76.7495818323  TIP3      863             0.0000000000
     19940      1000  TIP3      OH2            36.8024452541       21.8121889662       76.6182999393  TIP3      864             0.0000000000
     19941      1000  TIP3      H1             36.9285563169       22.3815737591       77.4118035156  TIP3      864             0.0000000000
     19942      1000  TIP3      H2             37.7184123261       21.7836121661       76.2845793490  TIP3      864             0.0000000000
     19943      1001  TIP3      OH2            31.8398027887       24.9968022405       76.5682560014  TIP3      865             0.0000000000
     19944      1001  TIP3      H1             31.9460202032       24.0295414308       76.6741307518  TIP3      865             0.0000000000
     19945      1001  TIP3      H2             31.2274834082       25.0331061224       75.8058990811  TIP3      865             0.0000000000
     19946      1002  TIP3      OH2            24.6756740754       22.6333067459       73.4742827094  TIP3      866             0.0000000000
     19947      1002  TIP3      H1             24.7524378614       23.4150050524       72.8858486181  TIP3      866             0.0000000000
     19948      1002  TIP3      H2             24.1978182542       22.0379227320       72.8536777577  TIP3      866             0.0000000000
     19949      1003  TIP3      OH2            31.9084931479       23.2296327727       72.8645475651  TIP3      867             0.0000000000
     19950      1003  TIP3      H1             32.5838940511       22.6686528880       73.3186278950  TIP3      867             0.0000000000
     19951      1003  TIP3      H2             32.4405922330       23.7568122965       72.2549453075  TIP3      867             0.0000000000
     19952      1004  TIP3      OH2            21.1619444274       25.1888364870       74.3148893516  TIP3      868             0.0000000000
     19953      1004  TIP3      H1             21.7140201355       24.6296891133       74.8857965048  TIP3      868             0.0000000000
     19954      1004  TIP3      H2             21.4815795825       24.8555168642       73.4419435103  TIP3      868             0.0000000000
     19955      1005  TIP3      OH2            25.5339963396       26.6059674286       73.6866804582  TIP3      869             0.0000000000
     19956      1005  TIP3      H1             26.4268909060       26.2234817175       73.8446050856  TIP3      869             0.0000000000
     19957      1005  TIP3      H2             25.2262781008       26.0347740224       72.9440321661  TIP3      869             0.0000000000
     19958      1006  TIP3      OH2            37.0467598805       23.1894889061       78.9384391640  TIP3      870             0.0000000000
     19959      1006  TIP3      H1             36.5896139665       24.0611059913       78.8006378510  TIP3      870             0.0000000000
     19960      1006  TIP3      H2             37.6540447037       23.4495222859       79.6445511879  TIP3      870             0.0000000000
     19961      1007  TIP3      OH2            23.6563903814       21.8346753693       77.7024529946  TIP3      871             0.0000000000
     19962      1007  TIP3      H1             23.1759321383       22.3724140074       77.0411377258  TIP3      871             0.0000000000
     19963      1007  TIP3      H2             23.1063294099       22.0133957189       78.4834736678  TIP3      871             0.0000000000
     19964      1008  TIP3      OH2            29.8020492575       31.4207805593       71.6892179234  TIP3      872             0.0000000000
     19965      1008  TIP3      H1             29.5754939925       31.0600811431       70.8113760939  TIP3      872             0.0000000000
     19966      1008  TIP3      H2             30.0179114484       32.3451559239       71.4614632310  TIP3      872             0.0000000000
     19967      1009  TIP3      OH2            25.5908993891       29.2070421370       78.2981195174  TIP3      873             0.0000000000
     19968      1009  TIP3      H1             24.8775662521       29.8759493954       78.3302967377  TIP3      873             0.0000000000
     19969      1009  TIP3      H2             26.2706300740       29.7268636281       77.8236775852  TIP3      873             0.0000000000
     19970      1010  TIP3      OH2            34.3164128979       22.2975320795       73.8839978019  TIP3      874             0.0000000000
     19971      1010  TIP3      H1             34.4463866153       21.8985198375       74.7584762114  TIP3      874             0.0000000000
     19972      1010  TIP3      H2             34.7523609161       23.1560238263       74.0030410210  TIP3      874             0.0000000000
     19973      1011  TIP3      OH2            23.2368222048       23.6773177531       75.5674628650  TIP3      875             0.0000000000
     19974      1011  TIP3      H1             23.8082977943       24.3093034948       76.0567501430  TIP3      875             0.0000000000
     19975      1011  TIP3      H2             23.8104026704       23.4385600112       74.7999338565  TIP3      875             0.0000000000
     19976      1012  TIP3      OH2            24.3715519364       31.6317589152       78.7719862479  TIP3      876             0.0000000000
     19977      1012  TIP3      H1             24.3129098733       32.5490153952       78.4626833531  TIP3      876             0.0000000000
     19978      1012  TIP3      H2             23.5092408765       31.5342268021       79.2349509861  TIP3      876             0.0000000000
     19979      1013  TIP3      OH2            20.2359405787       31.1406891571       69.3536909902  TIP3      877             0.0000000000
     19980      1013  TIP3      H1             20.2109013009       31.5582556233       68.4756405853  TIP3      877             0.0000000000
     19981      1013  TIP3      H2             20.3954183886       31.8766089769       69.9869016545  TIP3      877             0.0000000000
     19982      1014  TIP3      OH2            33.9605848955       32.6763484010       76.5215132575  TIP3      878             0.0000000000
     19983      1014  TIP3      H1             33.0525780277       32.9453466884       76.7890747863  TIP3      878             0.0000000000
     19984      1014  TIP3      H2             34.2072111694       33.4643560148       75.9965018610  TIP3      878             0.0000000000
     19985      1015  TIP3      OH2            33.7941529546       21.0856010912       77.8337533501  TIP3      879             0.0000000000
     19986      1015  TIP3      H1             33.0814832672       21.5177408280       77.3147965870  TIP3      879             0.0000000000
     19987      1015  TIP3      H2             34.5845128997       21.3355496538       77.3279234819  TIP3      879             0.0000000000
     19988      1016  TIP3      OH2            26.9138792296       19.0615676244       75.3550835859  TIP3      880             0.0000000000
     19989      1016  TIP3      H1             26.5786081398       18.1604145232       75.4868488082  TIP3      880             0.0000000000
     19990      1016  TIP3      H2             26.0747232244       19.5757502502       75.5115069438  TIP3      880             0.0000000000
     19991      1017  TIP3      OH2            31.9678025527       34.8826656766       72.4162241762  TIP3      881             0.0000000000
     19992      1017  TIP3      H1             32.2403009750       33.9456005673       72.3119955902  TIP3      881             0.0000000000
     19993      1017  TIP3      H2             32.8425491185       35.3355922856       72.3600958367  TIP3      881             0.0000000000
     19994      1018  TIP3      OH2            32.6800895532       32.3580034085       71.5090028077  TIP3      882             0.0000000000
     19995      1018  TIP3      H1             33.0703277214       31.8109633145       70.8047644195  TIP3      882             0.0000000000
     19996      1018  TIP3      H2             33.0353436762       31.9486420805       72.3108845911  TIP3      882             0.0000000000
     19997      1019  TIP3      OH2            34.9648338844       31.1579683590       80.3868921664  TIP3      883             0.0000000000
     19998      1019  TIP3      H1             35.1620947353       30.4959721915       79.6847256375  TIP3      883             0.0000000000
     19999      1019  TIP3      H2             35.0924216867       31.9729536024       79.8584528539  TIP3      883             0.0000000000
     20000      1020  TIP3      OH2            36.8399922565       27.6927595171       78.2154588249  TIP3      884             0.0000000000
     20001      1020  TIP3      H1             36.1338883782       28.3760306881       78.2635667048  TIP3      884             0.0000000000
     20002      1020  TIP3      H2             37.3632444860       28.0344303943       77.4566668315  TIP3      884             0.0000000000
     20003      1021  TIP3      OH2            33.0848463498       27.5680511139       71.2921714113  TIP3      885             0.0000000000
     20004      1021  TIP3      H1             32.2402945401       28.0114185337       71.5563817027  TIP3      885             0.0000000000
     20005      1021  TIP3      H2             33.5692569315       27.5930314448       72.1310981789  TIP3      885             0.0000000000
     20006      1022  TIP3      OH2            33.2601801089       26.3060377173       80.3064282516  TIP3      886             0.0000000000
     20007      1022  TIP3      H1             33.0883560397       27.2242941183       80.5768170372  TIP3      886             0.0000000000
     20008      1022  TIP3      H2             32.6669187349       26.2404087247       79.5313433309  TIP3      886             0.0000000000
     20009      1023  TIP3      OH2            24.5218027495       28.8925739978       72.8940003393  TIP3      887             0.0000000000
     20010      1023  TIP3      H1             23.8889002066       28.7589741921       72.1679932979  TIP3      887             0.0000000000
     20011      1023  TIP3      H2             24.8984085168       27.9845739358       72.9715826776  TIP3      887             0.0000000000
     20012      1024  TIP3      OH2            25.8786481226       31.8051412604       75.6361095255  TIP3      888             0.0000000000
     20013      1024  TIP3      H1             25.8663998779       31.4326562292       74.7268613055  TIP3      888             0.0000000000
     20014      1024  TIP3      H2             26.3352172962       31.0773701298       76.1043828024  TIP3      888             0.0000000000
     20015      1025  TIP3      OH2            24.9827092947       27.1760497507       76.3325193972  TIP3      889             0.0000000000
     20016      1025  TIP3      H1             25.1480770218       27.2487485159       75.3653715376  TIP3      889             0.0000000000
     20017      1025  TIP3      H2             25.5519546906       27.8730900922       76.6966881948  TIP3      889             0.0000000000
     20018      1026  TIP3      OH2            31.4469101509       33.2519655648       77.3116360403  TIP3      890             0.0000000000
     20019      1026  TIP3      H1             31.4664820391       33.3783332273       78.2774168359  TIP3      890             0.0000000000
     20020      1026  TIP3      H2             31.2556485698       32.2957310160       77.2668668924  TIP3      890             0.0000000000
     20021      1027  TIP3      OH2            25.9056430924       32.1021316812       81.0479903955  TIP3      891             0.0000000000
     20022      1027  TIP3      H1             25.2854889145       32.6702917260       81.5696255661  TIP3      891             0.0000000000
     20023      1027  TIP3      H2             25.3932236393       31.9878060274       80.2243942671  TIP3      891             0.0000000000
     20024      1028  TIP3      OH2            31.9986121282       27.1354470066       68.6307616844  TIP3      892             0.0000000000
     20025      1028  TIP3      H1             32.3028211382       27.5654722366       69.4541641538  TIP3      892             0.0000000000
     20026      1028  TIP3      H2             31.6784529541       27.8870980068       68.0992414409  TIP3      892             0.0000000000
     20027      1029  TIP3      OH2            23.1228124498       28.0773854504       79.7628818952  TIP3      893             0.0000000000
     20028      1029  TIP3      H1             23.6302076134       28.6723661230       80.3336716545  TIP3      893             0.0000000000
     20029      1029  TIP3      H2             22.3147864417       27.9730542815       80.2981859792  TIP3      893             0.0000000000
     20030      1030  TIP3      OH2            29.2141788519       34.3082466561       71.7106562669  TIP3      894             0.0000000000
     20031      1030  TIP3      H1             30.0321342791       34.7795504494       71.9439574407  TIP3      894             0.0000000000
     20032      1030  TIP3      H2             29.2516001801       34.3040385494       70.7187920521  TIP3      894             0.0000000000
     20033      1031  TIP3      OH2            24.0807542012       33.7260263135       82.1333471691  TIP3      895             0.0000000000
     20034      1031  TIP3      H1             23.9983991831       34.3212240069       81.3723511771  TIP3      895             0.0000000000
     20035      1031  TIP3      H2             23.1310247397       33.5441533878       82.3294229273  TIP3      895             0.0000000000
     20036      1032  TIP3      OH2            22.7343142584       27.6848478446       70.7941391764  TIP3      896             0.0000000000
     20037      1032  TIP3      H1             22.9466028350       28.4998896635       70.2838658683  TIP3      896             0.0000000000
     20038      1032  TIP3      H2             22.1323977603       27.2498307703       70.1826066715  TIP3      896             0.0000000000
     20039      1033  TIP3      OH2            19.7478835135       30.3103755991       79.1121069077  TIP3      897             0.0000000000
     20040      1033  TIP3      H1             19.2210972490       30.4112472131       78.3002495735  TIP3      897             0.0000000000
     20041      1033  TIP3      H2             20.2232425763       29.4755346019       78.9412408309  TIP3      897             0.0000000000
     20042      1034  TIP3      OH2            19.9381205579       32.6368535816       75.7499782871  TIP3      898             0.0000000000
     20043      1034  TIP3      H1             20.9126732734       32.5933188150       75.7054468721  TIP3      898             0.0000000000
     20044      1034  TIP3      H2             19.8030635479       33.4350556278       76.2765113387  TIP3      898             0.0000000000
     20045      1035  TIP3      OH2            37.3492779542       33.7337488114       81.8727851623  TIP3      899             0.0000000000
     20046      1035  TIP3      H1             37.4752121291       32.8464042803       82.2581118333  TIP3      899             0.0000000000
     20047      1035  TIP3      H2             36.3823478226       33.8212498970       82.0762351647  TIP3      899             0.0000000000
     20048      1036  TIP3      OH2            29.0479879231       32.9704226687       80.6406327749  TIP3      900             0.0000000000
     20049      1036  TIP3      H1             29.1977595724       33.5921477823       81.3743518019  TIP3      900             0.0000000000
     20050      1036  TIP3      H2             28.1343381462       32.6927838774       80.8209069075  TIP3      900             0.0000000000
     20051      1037  TIP3      OH2            29.4546914738       37.2085390322       70.1013873125  TIP3      901             0.0000000000
     20052      1037  TIP3      H1             28.7890987194       37.3576279753       69.4093000582  TIP3      901             0.0000000000
     20053      1037  TIP3      H2             29.3453510560       37.9939278879       70.6703582892  TIP3      901             0.0000000000
     20054      1038  TIP3      OH2            22.6586696441       35.6718928185       72.4898835259  TIP3      902             0.0000000000
     20055      1038  TIP3      H1             23.0064665517       35.4631489089       73.3905029589  TIP3      902             0.0000000000
     20056      1038  TIP3      H2             21.7160905820       35.4474697977       72.5819160160  TIP3      902             0.0000000000
     20057      1039  TIP3      OH2            31.8577383808       36.5726527281       66.8233313219  TIP3      903             0.0000000000
     20058      1039  TIP3      H1             32.5024751012       36.0567834963       66.3236584410  TIP3      903             0.0000000000
     20059      1039  TIP3      H2             32.1203975377       36.3772343957       67.7406310425  TIP3      903             0.0000000000
     20060      1040  TIP3      OH2            32.0074343332       36.2354885034       69.6296898047  TIP3      904             0.0000000000
     20061      1040  TIP3      H1             31.0323853955       36.3947524057       69.6428021359  TIP3      904             0.0000000000
     20062      1040  TIP3      H2             32.1106673604       35.5500200004       70.3080674187  TIP3      904             0.0000000000
     20063      1041  TIP3      OH2            34.9260567492       25.0647107436       82.1692650254  TIP3      905             0.0000000000
     20064      1041  TIP3      H1             34.2232531689       25.4948772393       81.6379084530  TIP3      905             0.0000000000
     20065      1041  TIP3      H2             34.8171690601       24.1213485626       81.9485573926  TIP3      905             0.0000000000
     20066      1042  TIP3      OH2            22.0092026137       31.6544599936       80.0276066436  TIP3      906             0.0000000000
     20067      1042  TIP3      H1             22.1946371974       31.2860285920       80.9234654925  TIP3      906             0.0000000000
     20068      1042  TIP3      H2             21.1637666270       31.2246585911       79.7840769718  TIP3      906             0.0000000000
     20069      1043  TIP3      OH2            24.7007064240       20.2803414187       75.8866290219  TIP3      907             0.0000000000
     20070      1043  TIP3      H1             23.7842449339       20.1831027100       75.5652135923  TIP3      907             0.0000000000
     20071      1043  TIP3      H2             24.5425725821       20.8326093558       76.6838808401  TIP3      907             0.0000000000
     20072      1044  TIP3      OH2            29.5940533060       19.9071574107       79.2563265596  TIP3      908             0.0000000000
     20073      1044  TIP3      H1             29.9007114660       19.5922774696       80.1413147985  TIP3      908             0.0000000000
     20074      1044  TIP3      H2             28.6240100087       19.8142547203       79.3446914127  TIP3      908             0.0000000000
     20075      1045  TIP3      OH2            32.1203754292       23.7271083593       80.6683399077  TIP3      909             0.0000000000
     20076      1045  TIP3      H1             31.3686550707       23.4445367850       81.2505628117  TIP3      909             0.0000000000
     20077      1045  TIP3      H2             32.3841782007       24.5753496633       81.0546293113  TIP3      909             0.0000000000
     20078      1046  TIP3      OH2            24.9170391449       24.7374238350       77.4208904583  TIP3      910             0.0000000000
     20079      1046  TIP3      H1             24.1250636813       24.8189130715       77.9926650458  TIP3      910             0.0000000000
     20080      1046  TIP3      H2             24.9570691499       25.6325809587       77.0013333638  TIP3      910             0.0000000000
     20081      1047  TIP3      OH2            24.7567511069       24.8076668032       71.8626705097  TIP3      911             0.0000000000
     20082      1047  TIP3      H1             23.8008996242       24.8248671214       71.6663203065  TIP3      911             0.0000000000
     20083      1047  TIP3      H2             25.1571092182       24.5101287090       71.0101680647  TIP3      911             0.0000000000
     20084      1048  TIP3      OH2            30.5967952780       25.5726451826       70.6907746464  TIP3      912             0.0000000000
     20085      1048  TIP3      H1             30.5698562341       26.4323920081       70.2434637583  TIP3      912             0.0000000000
     20086      1048  TIP3      H2             31.2818777823       25.1345772031       70.1574101354  TIP3      912             0.0000000000
     20087      1049  TIP3      OH2            28.8970218951       26.1433766869       82.2630608489  TIP3      913             0.0000000000
     20088      1049  TIP3      H1             28.6616061926       25.2321928222       82.5212272493  TIP3      913             0.0000000000
     20089      1049  TIP3      H2             29.7608890543       26.2558956895       82.6983950545  TIP3      913             0.0000000000
     20090      1050  TIP3      OH2            30.5945842683       25.3522811440       74.1850568840  TIP3      914             0.0000000000
     20091      1050  TIP3      H1             30.9544702579       26.0602878663       73.6273220067  TIP3      914             0.0000000000
     20092      1050  TIP3      H2             30.8905007653       24.5574050777       73.6865290308  TIP3      914             0.0000000000
     20093      1051  TIP3      OH2            22.3763506827       24.9508248497       78.5128865552  TIP3      915             0.0000000000
     20094      1051  TIP3      H1             22.5799443829       25.5287899035       79.2701378787  TIP3      915             0.0000000000
     20095      1051  TIP3      H2             22.0329722376       24.1370183918       78.9521702388  TIP3      915             0.0000000000
     20096      1052  TIP3      OH2            19.6355293566       21.9392686960       73.1173662278  TIP3      916             0.0000000000
     20097      1052  TIP3      H1             20.4916965771       22.0379060449       73.5477022741  TIP3      916             0.0000000000
     20098      1052  TIP3      H2             19.8422654378       21.9380223607       72.1562286000  TIP3      916             0.0000000000
     20099      1053  TIP3      OH2            21.2716399978       22.6124509276       68.5774361620  TIP3      917             0.0000000000
     20100      1053  TIP3      H1             20.8392654895       21.9264818014       68.0043176222  TIP3      917             0.0000000000
     20101      1053  TIP3      H2             20.6154440363       23.3127180082       68.5206152250  TIP3      917             0.0000000000
     20102      1054  TIP3      OH2            30.6131895210       26.6026606200       78.2961542112  TIP3      918             0.0000000000
     20103      1054  TIP3      H1             31.0989556530       25.8889842901       77.8358596095  TIP3      918             0.0000000000
     20104      1054  TIP3      H2             29.9268653125       26.1017970724       78.8004148158  TIP3      918             0.0000000000
     20105      1055  TIP3      OH2            27.3726123761       22.9551122832       73.1270556697  TIP3      919             0.0000000000
     20106      1055  TIP3      H1             26.4552835092       22.7256529166       73.3861338144  TIP3      919             0.0000000000
     20107      1055  TIP3      H2             27.8868474977       22.2579735093       73.5889863008  TIP3      919             0.0000000000
     20108      1056  TIP3      OH2            22.0830785739       24.1161915528       72.0877681577  TIP3      920             0.0000000000
     20109      1056  TIP3      H1             21.3980622234       24.4604788620       71.4697055889  TIP3      920             0.0000000000
     20110      1056  TIP3      H2             22.2863069725       23.2393491013       71.6926091959  TIP3      920             0.0000000000
     20111      1057  TIP3      OH2            25.5623960584       24.1432725167       69.3791886367  TIP3      921             0.0000000000
     20112      1057  TIP3      H1             25.9437076531       23.6118831027       68.6671340692  TIP3      921             0.0000000000
     20113      1057  TIP3      H2             25.2470988199       24.9464362439       68.9190957010  TIP3      921             0.0000000000
     20114      1058  TIP3      OH2            31.9169130528       22.2044109788       76.2173125276  TIP3      922             0.0000000000
     20115      1058  TIP3      H1             31.2587817588       22.0977099175       76.9481864177  TIP3      922             0.0000000000
     20116      1058  TIP3      H2             31.6877657011       21.4900947483       75.6013859910  TIP3      922             0.0000000000
     20117      1059  TIP3      OH2            24.3063635800       26.1134917648       67.4851502876  TIP3      923             0.0000000000
     20118      1059  TIP3      H1             23.5021522243       25.6501477430       67.2087837576  TIP3      923             0.0000000000
     20119      1059  TIP3      H2             24.7824858794       26.2364548737       66.6486968275  TIP3      923             0.0000000000
     20120      1060  TIP3      OH2            34.7275330038       37.0550241229       82.0164298153  TIP3      924             0.0000000000
     20121      1060  TIP3      H1             35.2819684125       37.5817358619       81.4159081451  TIP3      924             0.0000000000
     20122      1060  TIP3      H2             34.9545708140       37.5527775922       82.8326098655  TIP3      924             0.0000000000
     20123      1061  TIP3      OH2            22.2385329885       30.3572228070       82.4536784052  TIP3      925             0.0000000000
     20124      1061  TIP3      H1             23.0124613077       30.5439929301       83.0224134651  TIP3      925             0.0000000000
     20125      1061  TIP3      H2             21.5629532683       30.1069095745       83.1241519558  TIP3      925             0.0000000000
     20126      1062  TIP3      OH2            27.8696222228       25.3351270662       74.3201226902  TIP3      926             0.0000000000
     20127      1062  TIP3      H1             28.8318492005       25.1641546195       74.3430274610  TIP3      926             0.0000000000
     20128      1062  TIP3      H2             27.5766830485       24.5044925188       73.8757007711  TIP3      926             0.0000000000
     20129      1063  TIP3      OH2            23.2117332444       21.6310360121       71.4778101753  TIP3      927             0.0000000000
     20130      1063  TIP3      H1             22.7157418485       20.8133473909       71.7295474310  TIP3      927             0.0000000000
     20131      1063  TIP3      H2             23.5051484134       21.4226123852       70.5803233530  TIP3      927             0.0000000000
     20132      1064  TIP3      OH2            27.2499520024       23.5002924389       77.1609051998  TIP3      928             0.0000000000
     20133      1064  TIP3      H1             26.4103050044       23.9710853484       76.9863533255  TIP3      928             0.0000000000
     20134      1064  TIP3      H2             27.7732517321       24.2295594413       77.4972178002  TIP3      928             0.0000000000
     20135      1065  TIP3      OH2            35.2364126634       29.7967620361       78.2136355777  TIP3      929             0.0000000000
     20136      1065  TIP3      H1             35.5965137751       30.2211889430       77.3931052877  TIP3      929             0.0000000000
     20137      1065  TIP3      H2             34.3400807323       29.5597726800       77.9283673231  TIP3      929             0.0000000000
     20138      1066  TIP3      OH2            31.0900100439       23.4888124865       67.0988447143  TIP3      930             0.0000000000
     20139      1066  TIP3      H1             30.5836888245       22.7869471530       67.5394747888  TIP3      930             0.0000000000
     20140      1066  TIP3      H2             31.5903575571       23.9306081430       67.8081819098  TIP3      930             0.0000000000
     20141      1067  TIP3      OH2            29.0328179639       30.3028636840       80.0949930226  TIP3      931             0.0000000000
     20142      1067  TIP3      H1             29.0699900529       29.8350846384       80.9364137545  TIP3      931             0.0000000000
     20143      1067  TIP3      H2             29.1626119967       31.2289131016       80.3869577599  TIP3      931             0.0000000000
     20144      1068  TIP3      OH2            32.8182441590       24.6023242013       69.2057030582  TIP3      932             0.0000000000
     20145      1068  TIP3      H1             33.6632445761       24.6428128348       69.6986357258  TIP3      932             0.0000000000
     20146      1068  TIP3      H2             32.7455698859       25.5309036841       68.8834555269  TIP3      932             0.0000000000
     20147      1069  TIP3      OH2            23.0014275446       29.2561492496       75.2275703484  TIP3      933             0.0000000000
     20148      1069  TIP3      H1             23.4871754033       29.0571498185       74.4034812855  TIP3      933             0.0000000000
     20149      1069  TIP3      H2             23.0747034030       28.4208972621       75.7365572661  TIP3      933             0.0000000000
     20150      1070  TIP3      OH2            20.1627040604       27.6258002098       80.3042827888  TIP3      934             0.0000000000
     20151      1070  TIP3      H1             20.1581302989       26.9781070707       81.0269447681  TIP3      934             0.0000000000
     20152      1070  TIP3      H2             19.4296022840       27.3089481319       79.7408841990  TIP3      934             0.0000000000
     20153      1071  TIP3      OH2            26.5430819807       27.5833215230       81.9339669533  TIP3      935             0.0000000000
     20154      1071  TIP3      H1             26.1546959284       26.9891396640       81.2610881132  TIP3      935             0.0000000000
     20155      1071  TIP3      H2             27.3866659007       27.1005706014       82.1028150751  TIP3      935             0.0000000000
     20156      1072  TIP3      OH2            31.6828532116       32.1912945623       80.2007641931  TIP3      936             0.0000000000
     20157      1072  TIP3      H1             30.7851817382       32.5436096298       80.3741428644  TIP3      936             0.0000000000
     20158      1072  TIP3      H2             32.1814682126       32.6311757320       80.9101970272  TIP3      936             0.0000000000
     20159      1073  TIP3      OH2            37.4076037405       30.9102592048       81.4812297619  TIP3      937             0.0000000000
     20160      1073  TIP3      H1             36.4860984699       31.0813821035       81.1854988962  TIP3      937             0.0000000000
     20161      1073  TIP3      H2             37.8589657209       30.8084721433       80.6154223327  TIP3      937             0.0000000000
     20162      1074  TIP3      OH2            35.6027377143       33.7358484169       68.8432435484  TIP3      938             0.0000000000
     20163      1074  TIP3      H1             35.6491155811       32.7841179286       68.7245543200  TIP3      938             0.0000000000
     20164      1074  TIP3      H2             35.0493764801       34.0134587237       68.0773032276  TIP3      938             0.0000000000
     20165      1075  TIP3      OH2            32.8800338435       28.2286043152       75.8574184304  TIP3      939             0.0000000000
     20166      1075  TIP3      H1             31.9598045623       27.9848591347       76.0378324716  TIP3      939             0.0000000000
     20167      1075  TIP3      H2             33.2344958280       27.4627078888       75.3548381182  TIP3      939             0.0000000000
     20168      1076  TIP3      OH2            25.1070435573       33.1452068808       72.0834025751  TIP3      940             0.0000000000
     20169      1076  TIP3      H1             25.2369655716       34.0795539847       71.8028150570  TIP3      940             0.0000000000
     20170      1076  TIP3      H2             24.1427534365       33.1203902543       72.1222683072  TIP3      940             0.0000000000
     20171      1077  TIP3      OH2            26.3141103254       30.9832526812       73.0276745063  TIP3      941             0.0000000000
     20172      1077  TIP3      H1             25.8046615918       31.5216134292       72.3781530835  TIP3      941             0.0000000000
     20173      1077  TIP3      H2             25.8192829083       30.1385727551       72.9803660128  TIP3      941             0.0000000000
     20174      1078  TIP3      OH2            27.3155003062       34.6366263413       78.8118579677  TIP3      942             0.0000000000
     20175      1078  TIP3      H1             27.8347955024       35.4546737336       78.7167207078  TIP3      942             0.0000000000
     20176      1078  TIP3      H2             27.9101792889       34.1376274458       79.3983565506  TIP3      942             0.0000000000
     20177      1079  TIP3      OH2            25.2714625304       35.7736069624       71.5012242571  TIP3      943             0.0000000000
     20178      1079  TIP3      H1             24.3573527739       36.0032910248       71.7695763336  TIP3      943             0.0000000000
     20179      1079  TIP3      H2             25.7745941744       36.5799589182       71.7694667421  TIP3      943             0.0000000000
     20180      1080  TIP3      OH2            30.1215454601       30.2910615921       77.6131562555  TIP3      944             0.0000000000
     20181      1080  TIP3      H1             29.8852343535       30.2157708024       78.5711996121  TIP3      944             0.0000000000
     20182      1080  TIP3      H2             30.2880869680       29.3616259918       77.3714394532  TIP3      944             0.0000000000
     20183      1081  TIP3      OH2            33.0462576100       31.8220762928       67.1733111907  TIP3      945             0.0000000000
     20184      1081  TIP3      H1             33.2035434294       31.4868220098       68.0776773534  TIP3      945             0.0000000000
     20185      1081  TIP3      H2             32.1544904997       31.4699837296       66.9949837126  TIP3      945             0.0000000000
     20186      1082  TIP3      OH2            33.3160044566       34.6808352475       80.0320467635  TIP3      946             0.0000000000
     20187      1082  TIP3      H1             32.3692532384       34.8899461634       79.8601477712  TIP3      946             0.0000000000
     20188      1082  TIP3      H2             33.7199496300       35.5565581225       79.8813409259  TIP3      946             0.0000000000
     20189      1083  TIP3      OH2            37.8028133075       36.9815284938       67.5231638208  TIP3      947             0.0000000000
     20190      1083  TIP3      H1             38.0895166382       37.2524553316       66.6200629081  TIP3      947             0.0000000000
     20191      1083  TIP3      H2             36.9199368048       37.3985305938       67.5671914258  TIP3      947             0.0000000000
     20192      1084  TIP3      OH2            21.9771563865       22.6236681364       79.8871077727  TIP3      948             0.0000000000
     20193      1084  TIP3      H1             21.3586703649       23.0059953651       80.5450751396  TIP3      948             0.0000000000
     20194      1084  TIP3      H2             22.1073416423       21.7522763920       80.2996172401  TIP3      948             0.0000000000
     20195      1085  TIP3      OH2            33.8010790993       30.5109163285       69.5283889771  TIP3      949             0.0000000000
     20196      1085  TIP3      H1             33.5039049514       29.6218004333       69.7683860487  TIP3      949             0.0000000000
     20197      1085  TIP3      H2             34.7664211521       30.3560625343       69.4409626015  TIP3      949             0.0000000000
     20198      1086  TIP3      OH2            20.9479111867       34.2214313871       78.0548962310  TIP3      950             0.0000000000
     20199      1086  TIP3      H1             21.7169868694       33.6726407165       78.2880040323  TIP3      950             0.0000000000
     20200      1086  TIP3      H2             20.7527490632       34.6530016380       78.8953603989  TIP3      950             0.0000000000
     20201      1087  TIP3      OH2            23.0631621160       29.9966274902       69.2733402411  TIP3      951             0.0000000000
     20202      1087  TIP3      H1             22.1264626173       30.2286662067       69.4180313007  TIP3      951             0.0000000000
     20203      1087  TIP3      H2             23.3163196424       30.7145975504       68.6644389795  TIP3      951             0.0000000000
     20204      1088  TIP3      OH2            30.7002950144       22.3253340002       78.6726937761  TIP3      952             0.0000000000
     20205      1088  TIP3      H1             31.2749919601       22.6207770622       79.4070611302  TIP3      952             0.0000000000
     20206      1088  TIP3      H2             30.2626305148       21.5276981157       79.0499216916  TIP3      952             0.0000000000
     20207      1089  TIP3      OH2            31.1833531827       21.9276536027       70.5549780241  TIP3      953             0.0000000000
     20208      1089  TIP3      H1             30.4388873138       22.5087600194       70.2718189702  TIP3      953             0.0000000000
     20209      1089  TIP3      H2             31.4353335310       22.3337452639       71.4040121766  TIP3      953             0.0000000000
     20210      1090  TIP3      OH2            28.9340802146       34.1403947608       69.0873769947  TIP3      954             0.0000000000
     20211      1090  TIP3      H1             27.9857759469       34.0198497465       68.9258703523  TIP3      954             0.0000000000
     20212      1090  TIP3      H2             29.0766035488       34.9651810526       68.5764301433  TIP3      954             0.0000000000
     20213      1091  TIP3      OH2            28.9119578524       23.3965470792       70.1902481718  TIP3      955             0.0000000000
     20214      1091  TIP3      H1             29.1397804410       24.3313861340       70.3231459627  TIP3      955             0.0000000000
     20215      1091  TIP3      H2             27.9636407592       23.4101048541       70.4064468773  TIP3      955             0.0000000000
     20216      1092  TIP3      OH2            29.3207147038       24.7102665651       79.6651008321  TIP3      956             0.0000000000
     20217      1092  TIP3      H1             29.4583405210       24.8558137686       80.6105383713  TIP3      956             0.0000000000
     20218      1092  TIP3      H2             29.5628189569       23.7813510626       79.5194073888  TIP3      956             0.0000000000
     20219      1093  TIP3      OH2            28.9159793482       20.4155377280       71.4459081026  TIP3      957             0.0000000000
     20220      1093  TIP3      H1             28.6022369685       20.8668930792       72.2654115592  TIP3      957             0.0000000000
     20221      1093  TIP3      H2             29.6368161265       21.0132436426       71.1660871598  TIP3      957             0.0000000000
     20222      1094  TIP3      OH2            26.1243337709       35.2569789228       68.9624355160  TIP3      958             0.0000000000
     20223      1094  TIP3      H1             26.3013027652       36.1150326401       68.5608108594  TIP3      958             0.0000000000
     20224      1094  TIP3      H2             25.6578413282       35.4898837737       69.7897884282  TIP3      958             0.0000000000
     20225      1095  TIP3      OH2            34.7650487588       22.4936027664       80.8618798204  TIP3      959             0.0000000000
     20226      1095  TIP3      H1             33.8095886514       22.6425851450       80.7239087072  TIP3      959             0.0000000000
     20227      1095  TIP3      H2             35.1119900233       22.6475990297       79.9705764578  TIP3      959             0.0000000000
     20228      1096  TIP3      OH2            33.6628846453       25.9077813701       74.3933426649  TIP3      960             0.0000000000
     20229      1096  TIP3      H1             33.0086885324       25.3751000891       74.8745539714  TIP3      960             0.0000000000
     20230      1096  TIP3      H2             34.4136303148       25.8270923870       75.0369283691  TIP3      960             0.0000000000
     20231      1097  TIP3      OH2            22.8413648621       32.3599191344       67.3915954879  TIP3      961             0.0000000000
     20232      1097  TIP3      H1             23.2514822332       33.0994308613       66.8814156596  TIP3      961             0.0000000000
     20233      1097  TIP3      H2             23.0460623073       31.6300430824       66.7752427818  TIP3      961             0.0000000000
     20234      1098  TIP3      OH2            34.5643481318       35.4250162803       76.2436178019  TIP3      962             0.0000000000
     20235      1098  TIP3      H1             34.7557593228       36.1098792521       75.5699941122  TIP3      962             0.0000000000
     20236      1098  TIP3      H2             35.4431224120       35.3170888753       76.6503284378  TIP3      962             0.0000000000
     20237      1099  TIP3      OH2            22.1403659039       19.5641948345       75.2719559421  TIP3      963             0.0000000000
     20238      1099  TIP3      H1             22.0162612639       19.5114931329       74.2953138559  TIP3      963             0.0000000000
     20239      1099  TIP3      H2             21.7813343268       18.6951471828       75.5541707545  TIP3      963             0.0000000000
     20240      1100  TIP3      OH2            20.8043996445       33.1224381496       71.1825150756  TIP3      964             0.0000000000
     20241      1100  TIP3      H1             20.2660578306       33.6405540213       71.7945293500  TIP3      964             0.0000000000
     20242      1100  TIP3      H2             21.2054303420       33.8304638564       70.6537158446  TIP3      964             0.0000000000
     20243      1101  TIP3      OH2            20.0035351995       36.4577139700       82.3303638845  TIP3      965             0.0000000000
     20244      1101  TIP3      H1             20.6912713334       36.2604418089       83.0094470116  TIP3      965             0.0000000000
     20245      1101  TIP3      H2             19.6385223636       35.5556362209       82.2544047057  TIP3      965             0.0000000000
     20246      1102  TIP3      OH2            25.1715043590       35.3802273955       83.9267375772  TIP3      966             0.0000000000
     20247      1102  TIP3      H1             25.9729355979       34.8831046183       84.1861940379  TIP3      966             0.0000000000
     20248      1102  TIP3      H2             24.8594719010       34.7769273940       83.2254799643  TIP3      966             0.0000000000
     20249      1103  TIP3      OH2            28.7490809310       33.7612654637       65.2409814453  TIP3      967             0.0000000000
     20250      1103  TIP3      H1             28.7602585086       32.8006586105       65.4096241901  TIP3      967             0.0000000000
     20251      1103  TIP3      H2             29.1033609493       34.1092418988       66.0721345668  TIP3      967             0.0000000000
     20252      1104  TIP3      OH2            32.2495299299       31.9308274182       82.9797144044  TIP3      968             0.0000000000
     20253      1104  TIP3      H1             31.2717566832       32.0617636057       82.9160233316  TIP3      968             0.0000000000
     20254      1104  TIP3      H2             32.5093038006       32.8391418241       83.2056783140  TIP3      968             0.0000000000
     20255      1105  TIP3      OH2            34.3103959192       34.3054514850       66.4976313216  TIP3      969             0.0000000000
     20256      1105  TIP3      H1             33.7933866427       33.4702418662       66.5524334319  TIP3      969             0.0000000000
     20257      1105  TIP3      H2             34.5548017507       34.3595123071       65.5683871384  TIP3      969             0.0000000000
     20258      1106  TIP3      OH2            19.9606413753       30.2387164268       83.8435189579  TIP3      970             0.0000000000
     20259      1106  TIP3      H1             19.2749485377       29.6860053147       84.2635739551  TIP3      970             0.0000000000
     20260      1106  TIP3      H2             19.5654922155       30.3957680811       82.9540845023  TIP3      970             0.0000000000
     20261      1107  TIP3      OH2            24.3622758887       30.5899941569       65.8185945426  TIP3      971             0.0000000000
     20262      1107  TIP3      H1             25.1113597661       30.5430315077       66.4195599723  TIP3      971             0.0000000000
     20263      1107  TIP3      H2             24.7141758452       31.1072731374       65.0785083109  TIP3      971             0.0000000000
     20264      1108  TIP3      OH2            26.6944389575       30.1226037472       82.7992858067  TIP3      972             0.0000000000
     20265      1108  TIP3      H1             26.5503842798       30.6798178882       82.0034629995  TIP3      972             0.0000000000
     20266      1108  TIP3      H2             26.5364101490       29.1993170331       82.4619923195  TIP3      972             0.0000000000
     20267      1109  TIP3      OH2            32.6371193555       29.7014402117       80.4683457932  TIP3      973             0.0000000000
     20268      1109  TIP3      H1             33.4402614207       30.2322523709       80.6633858997  TIP3      973             0.0000000000
     20269      1109  TIP3      H2             32.0382358789       30.4436747924       80.2174308980  TIP3      973             0.0000000000
     20270      1110  TIP3      OH2            21.6164213118       26.9498731492       83.1859844387  TIP3      974             0.0000000000
     20271      1110  TIP3      H1             21.6930982202       26.1436423528       83.7113391560  TIP3      974             0.0000000000
     20272      1110  TIP3      H2             21.7399103699       27.6270227275       83.8828521079  TIP3      974             0.0000000000
     20273      1111  TIP3      OH2            25.7947830067       28.2767574869       68.5155700900  TIP3      975             0.0000000000
     20274      1111  TIP3      H1             25.3100272902       28.9663270097       68.9778004038  TIP3      975             0.0000000000
     20275      1111  TIP3      H2             25.0841155515       27.7128024201       68.1810787177  TIP3      975             0.0000000000
     20276      1112  TIP3      OH2            25.1071508718       26.2527136064       79.9765702659  TIP3      976             0.0000000000
     20277      1112  TIP3      H1             24.4603143510       26.9789828967       79.8592439493  TIP3      976             0.0000000000
     20278      1112  TIP3      H2             25.6985551212       26.4377371304       79.2297070795  TIP3      976             0.0000000000
     20279      1113  TIP3      OH2            30.4095075865       29.0433042581       83.6702352965  TIP3      977             0.0000000000
     20280      1113  TIP3      H1             31.2867261388       28.6390241883       83.5164601675  TIP3      977             0.0000000000
     20281      1113  TIP3      H2             30.0165773850       28.4345808344       84.3282261013  TIP3      977             0.0000000000
     20282      1114  TIP3      OH2            25.9639432518       23.8627509890       80.9998017954  TIP3      978             0.0000000000
     20283      1114  TIP3      H1             25.9954329809       23.1708176282       80.3092554023  TIP3      978             0.0000000000
     20284      1114  TIP3      H2             25.6905336849       24.6494519461       80.4796989448  TIP3      978             0.0000000000
     20285      1115  TIP3      OH2            26.2688493798       21.8827311503       78.9560239280  TIP3      979             0.0000000000
     20286      1115  TIP3      H1             26.9378030705       22.3805795914       78.4241903926  TIP3      979             0.0000000000
     20287      1115  TIP3      H2             25.4914559455       22.1219789548       78.4167637107  TIP3      979             0.0000000000
     20288      1116  TIP3      OH2            27.6092274250       27.4735999038       78.6300866300  TIP3      980             0.0000000000
     20289      1116  TIP3      H1             28.3517279424       28.0862391209       78.5737960237  TIP3      980             0.0000000000
     20290      1116  TIP3      H2             26.8661055898       28.1114389683       78.5596982452  TIP3      980             0.0000000000
     20291      1117  TIP3      OH2            31.5339124532       24.9769389409       83.9985136399  TIP3      981             0.0000000000
     20292      1117  TIP3      H1             31.5900756932       24.2798828528       84.6842605580  TIP3      981             0.0000000000
     20293      1117  TIP3      H2             32.1725355117       25.6152026050       84.3388025136  TIP3      981             0.0000000000
     20294      1118  TIP3      OH2            33.0794354217       28.1912324043       82.8668281306  TIP3      982             0.0000000000
     20295      1118  TIP3      H1             32.7973097487       28.8540196873       82.1944787372  TIP3      982             0.0000000000
     20296      1118  TIP3      H2             33.9772641024       27.9800148236       82.5459280010  TIP3      982             0.0000000000
     20297      1119  TIP3      OH2            24.4456538555       24.4984538061       83.2573498060  TIP3      983             0.0000000000
     20298      1119  TIP3      H1             23.5273894329       24.3735422110       82.9841695338  TIP3      983             0.0000000000
     20299      1119  TIP3      H2             24.9033011517       24.2143651520       82.4387403665  TIP3      983             0.0000000000
     20300      1120  TIP3      OH2            26.8086839111       19.2751178657       79.0306708095  TIP3      984             0.0000000000
     20301      1120  TIP3      H1             26.5651517266       20.2311421486       79.0596705431  TIP3      984             0.0000000000
     20302      1120  TIP3      H2             25.9489171108       18.8894307145       78.8070915860  TIP3      984             0.0000000000
     20303      1121  TIP3      OH2            27.6517816378       23.5537546367       83.1502197157  TIP3      985             0.0000000000
     20304      1121  TIP3      H1             26.9978616791       23.3436487965       83.8504505103  TIP3      985             0.0000000000
     20305      1121  TIP3      H2             27.0792700311       23.5995782064       82.3505576312  TIP3      985             0.0000000000
     20306      1122  TIP3      OH2            30.0403309718       22.7510765709       81.9717823771  TIP3      986             0.0000000000
     20307      1122  TIP3      H1             29.1468574227       22.8344030252       82.3587100103  TIP3      986             0.0000000000
     20308      1122  TIP3      H2             30.5110323802       22.2498025424       82.6782892358  TIP3      986             0.0000000000
     20309      1123  TIP3      OH2            31.5069388787       21.4297767707       83.9035639285  TIP3      987             0.0000000000
     20310      1123  TIP3      H1             31.8504988991       20.5112843337       83.9873151485  TIP3      987             0.0000000000
     20311      1123  TIP3      H2             31.7985100148       21.8667120693       84.7344627601  TIP3      987             0.0000000000
     20312      1124  TIP3      OH2            21.7356452915       22.5640368998       83.2964071781  TIP3      988             0.0000000000
     20313      1124  TIP3      H1             21.5508582919       21.6764176183       82.9207792572  TIP3      988             0.0000000000
     20314      1124  TIP3      H2             21.7526092769       22.4009534064       84.2685798022  TIP3      988             0.0000000000
     20315      1125  TIP3      OH2            26.4435254439       19.0406627822       81.7697306717  TIP3      989             0.0000000000
     20316      1125  TIP3      H1             27.2049551290       18.4640861394       81.9707881929  TIP3      989             0.0000000000
     20317      1125  TIP3      H2             26.4653599782       18.9803087697       80.7948120740  TIP3      989             0.0000000000
     20318      1126  TIP3      OH2            26.5650560724       20.1723378484       84.6990766940  TIP3      990             0.0000000000
     20319      1126  TIP3      H1             26.5604940469       19.7645427292       83.8062405155  TIP3      990             0.0000000000
     20320      1126  TIP3      H2             26.2237965550       21.0705702460       84.4757251600  TIP3      990             0.0000000000
     20321      1127  TIP3      OH2            18.8816852308       37.1649894533       71.9576955931  TIP3      991             0.0000000000
     20322      1127  TIP3      H1             18.3255335129       36.6143659577       71.3506735177  TIP3      991             0.0000000000
     20323      1127  TIP3      H2             19.2005284294       36.4879084368       72.5816894769  TIP3      991             0.0000000000
     20324      1128  TIP3      OH2            19.7235435337       35.2329456244       73.7195560486  TIP3      992             0.0000000000
     20325      1128  TIP3      H1             18.9470250807       34.8116906439       74.1242662054  TIP3      992             0.0000000000
     20326      1128  TIP3      H2             20.1003028873       35.6627938356       74.5211347015  TIP3      992             0.0000000000
     20327      1129  TIP3      OH2            37.2261065043       36.2510723350       76.4275202465  TIP3      993             0.0000000000
     20328      1129  TIP3      H1             37.5715122853       36.6685646378       77.2353754713  TIP3      993             0.0000000000
     20329      1129  TIP3      H2             37.1882077334       36.9751603481       75.7864741388  TIP3      993             0.0000000000
     20330      1130  TIP3      OH2            36.5905914107       35.5816691522       79.5534474646  TIP3      994             0.0000000000
     20331      1130  TIP3      H1             36.4004842378       34.7561529504       79.0603976756  TIP3      994             0.0000000000
     20332      1130  TIP3      H2             37.0932180843       35.2402751444       80.3168731425  TIP3      994             0.0000000000
     20333      1131  TIP3      OH2            35.7401947803       31.6430056242       84.5485824279  TIP3      995             0.0000000000
     20334      1131  TIP3      H1             34.8211528917       31.8891191263       84.7846751664  TIP3      995             0.0000000000
     20335      1131  TIP3      H2             36.2553982628       32.4195740734       84.8726429725  TIP3      995             0.0000000000
     20336      1132  TIP3      OH2            36.2984071884       29.5950204695       69.6329089175  TIP3      996             0.0000000000
     20337      1132  TIP3      H1             36.9684813045       30.2444328387       69.8950673405  TIP3      996             0.0000000000
     20338      1132  TIP3      H2             36.3566357196       28.9444302071       70.3731918293  TIP3      996             0.0000000000
     20339      1133  TIP3      OH2            37.1242164711       28.0091350312       71.6241134819  TIP3      997             0.0000000000
     20340      1133  TIP3      H1             36.5603416530       27.2509688933       71.8925316678  TIP3      997             0.0000000000
     20341      1133  TIP3      H2             37.6290586399       28.1318642603       72.4580132254  TIP3      997             0.0000000000
     20342      1134  TIP3      OH2            36.5840662191       30.5981695577       76.0378757970  TIP3      998             0.0000000000
     20343      1134  TIP3      H1             37.3013947043       29.9262273120       76.0808665244  TIP3      998             0.0000000000
     20344      1134  TIP3      H2             37.0896015842       31.4039378968       75.8091972558  TIP3      998             0.0000000000
     20345      1135  TIP3      OH2            35.2952594975       33.3053252755       78.8008274363  TIP3      999             0.0000000000
     20346      1135  TIP3      H1             34.5565669042       33.7499313809       79.2742922453  TIP3      999             0.0000000000
     20347      1135  TIP3      H2             34.8352935682       32.9411457812       78.0094750186  TIP3      999             0.0000000000
     20348      1136  TIP3      OH2            37.6341342253       27.9344385253       67.9000669519  TIP3      1000            0.0000000000
     20349      1136  TIP3      H1             37.2481380996       27.0506975806       67.8350295841  TIP3      1000            0.0000000000
     20350      1136  TIP3      H2             37.0437878544       28.3784264623       68.5326980377  TIP3      1000            0.0000000000
     20351      1137  TIP3      OH2            35.6904959444       25.7733980647       72.5807053921  TIP3      1001            0.0000000000
     20352      1137  TIP3      H1             35.1339504071       25.3285850889       71.9107084989  TIP3      1001            0.0000000000
     20353      1137  TIP3      H2             35.0289570785       25.8402385406       73.3025941266  TIP3      1001            0.0000000000
     20354      1138  TIP3      OH2            19.9623612729       28.3063611026       76.4241096142  TIP3      1002            0.0000000000
     20355      1138  TIP3      H1             19.9073618790       28.0502373456       75.4751253051  TIP3      1002            0.0000000000
     20356      1138  TIP3      H2             20.9301509099       28.1987465511       76.5987326488  TIP3      1002            0.0000000000
     20357      1139  TIP3      OH2            35.9994849693       28.2594091720       81.9714637782  TIP3      1003            0.0000000000
     20358      1139  TIP3      H1             36.5163101322       27.4369232623       82.1431845151  TIP3      1003            0.0000000000
     20359      1139  TIP3      H2             36.6978143613       28.8746856691       81.6681988060  TIP3      1003            0.0000000000
     20360      1140  TIP3      OH2            37.2098887365       25.9548018315       83.1678891187  TIP3      1004            0.0000000000
     20361      1140  TIP3      H1             36.4160787652       25.5122640678       82.7887505260  TIP3      1004            0.0000000000
     20362      1140  TIP3      H2             37.9045517738       25.3517696335       82.8083102421  TIP3      1004            0.0000000000
     20363      1141  TIP3      OH2            34.8534368402       23.8970665206       70.8565042128  TIP3      1005            0.0000000000
     20364      1141  TIP3      H1             34.9346797454       22.9530012997       71.1351299380  TIP3      1005            0.0000000000
     20365      1141  TIP3      H2             35.6965935272       24.0567503788       70.3991661261  TIP3      1005            0.0000000000
     20366      1142  TIP3      OH2            35.4401781504       25.0411361459       76.1914137493  TIP3      1006            0.0000000000
     20367      1142  TIP3      H1             36.4138400367       25.1198097465       76.0586363622  TIP3      1006            0.0000000000
     20368      1142  TIP3      H2             35.4260173765       25.1315989972       77.1638664769  TIP3      1006            0.0000000000
     20369      1143  TIP3      OH2            35.5913540892       25.3899745003       78.8650302546  TIP3      1007            0.0000000000
     20370      1143  TIP3      H1             34.7960937543       25.6264668144       79.3826721201  TIP3      1007            0.0000000000
     20371      1143  TIP3      H2             35.9701843567       26.2898502337       78.7156223710  TIP3      1007            0.0000000000
     20372      1144  TIP3      OH2            19.9982901856       23.8241315765       81.6443433321  TIP3      1008            0.0000000000
     20373      1144  TIP3      H1             20.5945021989       23.4689190636       82.3448962404  TIP3      1008            0.0000000000
     20374      1144  TIP3      H2             19.2673832936       23.1629405321       81.6701798201  TIP3      1008            0.0000000000
     20375      1145  TIP3      OH2            37.6494690324       19.9188134040       83.9359771906  TIP3      1009            0.0000000000
     20376      1145  TIP3      H1             38.0836304625       19.2628736649       83.3586301609  TIP3      1009            0.0000000000
     20377      1145  TIP3      H2             37.5331949047       20.6854026911       83.3312726418  TIP3      1009            0.0000000000
     20378      1146  TIP3      OH2            34.8581917908       21.1134414258       70.9880915009  TIP3      1010            0.0000000000
     20379      1146  TIP3      H1             35.3713977236       21.0939923018       71.8275926773  TIP3      1010            0.0000000000
     20380      1146  TIP3      H2             35.1482665052       20.2685680712       70.6026511606  TIP3      1010            0.0000000000
     20381      1147  TIP3      OH2            21.1021285730       21.9584997512       75.8220478111  TIP3      1011            0.0000000000
     20382      1147  TIP3      H1             21.3683491333       21.0335733077       75.6267225586  TIP3      1011            0.0000000000
     20383      1147  TIP3      H2             21.8831004017       22.4853872851       75.5806934460  TIP3      1011            0.0000000000
     20384      1148  TIP3      OH2            19.3514527800       24.9813591337       76.3606775440  TIP3      1012            0.0000000000
     20385      1148  TIP3      H1             19.7309516319       24.5461882535       75.5755330288  TIP3      1012            0.0000000000
     20386      1148  TIP3      H2             19.9798877687       25.7029210741       76.5009352026  TIP3      1012            0.0000000000
     20387      1149  TIP3      OH2            36.9346278070       22.0185186053       82.4211015148  TIP3      1013            0.0000000000
     20388      1149  TIP3      H1             36.2481946882       22.4445616429       82.9810772314  TIP3      1013            0.0000000000
     20389      1149  TIP3      H2             36.3647218692       21.7575852190       81.6704674333  TIP3      1013            0.0000000000
     20390      1150  TIP3      OH2            19.3654527922       21.6401002891       70.4089828698  TIP3      1014            0.0000000000
     20391      1150  TIP3      H1             18.8594543014       22.3855801172       70.0363808353  TIP3      1014            0.0000000000
     20392      1150  TIP3      H2             19.6901063393       21.2222933183       69.5871538241  TIP3      1014            0.0000000000
     20393      1151  TIP3      OH2            34.2652552299       36.4073595218       72.3339728400  TIP3      1015            0.0000000000
     20394      1151  TIP3      H1             34.9917765535       36.3586443478       71.6731874653  TIP3      1015            0.0000000000
     20395      1151  TIP3      H2             34.6868139385       36.8632504516       73.0885180987  TIP3      1015            0.0000000000
     20396      1152  TIP3      OH2            19.4443324152       19.8665603873       78.7449618553  TIP3      1016            0.0000000000
     20397      1152  TIP3      H1             18.8509436817       19.4429048330       79.3919318761  TIP3      1016            0.0000000000
     20398      1152  TIP3      H2             19.1012789113       20.7690210741       78.6955314454  TIP3      1016            0.0000000000
     20399      1153  TIP3      OH2            21.4745628506       33.0730850793       82.5846397998  TIP3      1017            0.0000000000
     20400      1153  TIP3      H1             20.6226640994       33.4654621192       82.3319182228  TIP3      1017            0.0000000000
     20401      1153  TIP3      H2             21.2891933392       32.1254326847       82.5798555034  TIP3      1017            0.0000000000
     20402      1154  TIP3      OH2            24.6661076634       34.6130437114       79.2994582566  TIP3      1018            0.0000000000
     20403      1154  TIP3      H1             24.6721482893       35.5303742254       78.9552005681  TIP3      1018            0.0000000000
     20404      1154  TIP3      H2             25.6251789411       34.4157871517       79.1899222262  TIP3      1018            0.0000000000
     20405      1155  TIP3      OH2            28.7782364513       36.0149308204       81.9168970807  TIP3      1019            0.0000000000
     20406      1155  TIP3      H1             28.4758348083       35.5312951612       82.7247895668  TIP3      1019            0.0000000000
     20407      1155  TIP3      H2             29.7163806720       35.7288940933       81.9405599699  TIP3      1019            0.0000000000
     20408      1156  TIP3      OH2            31.1687350370       37.6438049801       81.1502933052  TIP3      1020            0.0000000000
     20409      1156  TIP3      H1             31.3873580754       36.7162873613       81.3726809805  TIP3      1020            0.0000000000
     20410      1156  TIP3      H2             31.4377522027       38.1080900097       81.9695182358  TIP3      1020            0.0000000000
     20411      1157  TIP3      OH2            36.0398567017       19.4061127814       80.5132695472  TIP3      1021            0.0000000000
     20412      1157  TIP3      H1             35.4048006650       19.9714949429       80.0604305024  TIP3      1021            0.0000000000
     20413      1157  TIP3      H2             35.9642450937       18.5715295817       80.0001749146  TIP3      1021            0.0000000000
     20414      1158  TIP3      OH2            21.9620405640       37.4927819648       78.6399444230  TIP3      1022            0.0000000000
     20415      1158  TIP3      H1             21.2234710647       38.1198750816       78.5093832520  TIP3      1022            0.0000000000
     20416      1158  TIP3      H2             21.9746144325       37.3648288033       79.6001053790  TIP3      1022            0.0000000000
     20417      1159  TIP3      OH2            24.4961534115       37.1490087476       78.0132919021  TIP3      1023            0.0000000000
     20418      1159  TIP3      H1             23.5176438010       37.2439363962       78.1039613492  TIP3      1023            0.0000000000
     20419      1159  TIP3      H2             24.6202344026       37.7774372882       77.2829488092  TIP3      1023            0.0000000000
     20420      1160  TIP3      OH2            28.9554508383       36.7963464388       77.2394736099  TIP3      1024            0.0000000000
     20421      1160  TIP3      H1             28.1633805381       37.3209883236       77.0037921050  TIP3      1024            0.0000000000
     20422      1160  TIP3      H2             29.3803823490       37.4275868714       77.8530598277  TIP3      1024            0.0000000000
     20423      1161  TIP3      OH2            31.1960348261       35.7572782189       78.8374582215  TIP3      1025            0.0000000000
     20424      1161  TIP3      H1             30.7495067909       35.8170175859       77.9741846425  TIP3      1025            0.0000000000
     20425      1161  TIP3      H2             31.9479526925       36.3668494992       78.6880820049  TIP3      1025            0.0000000000
     20426      1162  TIP3      OH2            33.8204574407       37.0035956306       78.2868057492  TIP3      1026            0.0000000000
     20427      1162  TIP3      H1             33.8793206452       37.9221530154       77.9983878280  TIP3      1026            0.0000000000
     20428      1162  TIP3      H2             34.0634717563       36.5070136275       77.4713897361  TIP3      1026            0.0000000000
     20429      1163  TIP3      OH2            21.2929304342       35.8434776196       75.8487132120  TIP3      1027            0.0000000000
     20430      1163  TIP3      H1             21.0017739883       35.3537426538       76.6506116711  TIP3      1027            0.0000000000
     20431      1163  TIP3      H2             22.2351174331       35.5665883507       75.7785277455  TIP3      1027            0.0000000000
     20432      1164  TIP3      OH2            23.7396300298       35.1154712104       74.8591415800  TIP3      1028            0.0000000000
     20433      1164  TIP3      H1             23.4073542281       34.2018913951       75.0134382826  TIP3      1028            0.0000000000
     20434      1164  TIP3      H2             24.6838735721       34.9921135172       75.0807142558  TIP3      1028            0.0000000000
     20435      1165  TIP3      OH2            26.3723790429       34.4731417787       75.5025173045  TIP3      1029            0.0000000000
     20436      1165  TIP3      H1             26.1598533652       33.5626204666       75.8056666912  TIP3      1029            0.0000000000
     20437      1165  TIP3      H2             26.9492316822       34.8029585456       76.2132356162  TIP3      1029            0.0000000000
     20438      1166  TIP3      OH2            28.5493271207       20.7580230606       74.0757286456  TIP3      1030            0.0000000000
     20439      1166  TIP3      H1             27.8974915114       20.2167484311       74.5796100051  TIP3      1030            0.0000000000
     20440      1166  TIP3      H2             29.3913755755       20.3198746939       74.2749939071  TIP3      1030            0.0000000000
     20441      1167  TIP3      OH2            34.6371939780       19.2869880418       74.6895556541  TIP3      1031            0.0000000000
     20442      1167  TIP3      H1             35.2814853101       19.8102052280       74.1662904099  TIP3      1031            0.0000000000
     20443      1167  TIP3      H2             33.7967201060       19.4710460215       74.2106775233  TIP3      1031            0.0000000000
     20444      1168  TIP3      OH2            36.5444720884       20.2820424024       72.9175928651  TIP3      1032            0.0000000000
     20445      1168  TIP3      H1             37.1889031941       19.6379507285       72.5472962433  TIP3      1032            0.0000000000
     20446      1168  TIP3      H2             37.1452018446       20.9745804586       73.2747855465  TIP3      1032            0.0000000000
     20447      1169  TIP3      OH2            21.7553236367       19.4978216423       72.5134594794  TIP3      1033            0.0000000000
     20448      1169  TIP3      H1             20.8166859219       19.3378576133       72.2962316489  TIP3      1033            0.0000000000
     20449      1169  TIP3      H2             22.1374881914       18.6422760867       72.1931915266  TIP3      1033            0.0000000000
     20450      1170  TIP3      OH2            26.2783210312       19.0400510545       72.4535820707  TIP3      1034            0.0000000000
     20451      1170  TIP3      H1             26.9590198951       19.4729240689       71.9181867651  TIP3      1034            0.0000000000
     20452      1170  TIP3      H2             26.5917266039       19.1793988750       73.3608630679  TIP3      1034            0.0000000000
     20453      1171  TIP3      OH2            32.1693022401       19.6051661862       73.5091704493  TIP3      1035            0.0000000000
     20454      1171  TIP3      H1             31.6360841318       19.7724061575       72.7193733701  TIP3      1035            0.0000000000
     20455      1171  TIP3      H2             31.7588301263       18.7686325653       73.8349959778  TIP3      1035            0.0000000000
     20456      1172  TIP3      OH2            34.2175776019       19.3665905299       68.8960933414  TIP3      1036            0.0000000000
     20457      1172  TIP3      H1             33.3511057551       19.0979905882       69.2794409174  TIP3      1036            0.0000000000
     20458      1172  TIP3      H2             34.7880550421       18.7117718819       69.3451787684  TIP3      1036            0.0000000000
     20459      1173  TIP3      OH2            20.5846043974       35.5125492264       69.2495367850  TIP3      1037            0.0000000000
     20460      1173  TIP3      H1             21.1127014958       35.0577218270       68.5890137532  TIP3      1037            0.0000000000
     20461      1173  TIP3      H2             20.5489582126       36.4279747576       68.8932834231  TIP3      1037            0.0000000000
     20462      1174  TIP3      OH2            29.1389400894       36.3716915938       67.3415991268  TIP3      1038            0.0000000000
     20463      1174  TIP3      H1             30.0921418036       36.5432875822       67.1753789593  TIP3      1038            0.0000000000
     20464      1174  TIP3      H2             28.7280574278       37.1616943419       66.9540807920  TIP3      1038            0.0000000000
     20465      1175  TIP3      OH2            36.0674236133       35.9701100215       70.2902302848  TIP3      1039            0.0000000000
     20466      1175  TIP3      H1             35.8095727201       35.1152116247       69.8607021791  TIP3      1039            0.0000000000
     20467      1175  TIP3      H2             36.0739870004       36.5642792281       69.5105866306  TIP3      1039            0.0000000000
     20468      1176  TIP3      OH2            21.4232093804       20.1116560409       81.9295377784  TIP3      1040            0.0000000000
     20469      1176  TIP3      H1             20.8947768258       19.2885540150       81.9387488562  TIP3      1040            0.0000000000
     20470      1176  TIP3      H2             22.1571466306       19.8976061208       82.5521165459  TIP3      1040            0.0000000000
     20471      1177  TIP3      OH2            23.3884333931       19.3630684902       83.6598259998  TIP3      1041            0.0000000000
     20472      1177  TIP3      H1             24.2410067843       19.1211053423       83.2529213958  TIP3      1041            0.0000000000
     20473      1177  TIP3      H2             23.1799584316       18.5253521398       84.1175077430  TIP3      1041            0.0000000000
     20474      1178  TIP3      OH2            32.0307208650       18.8118087282       83.7131663536  TIP3      1042            0.0000000000
     20475      1178  TIP3      H1             32.1452140688       18.3578404707       84.5748077813  TIP3      1042            0.0000000000
     20476      1178  TIP3      H2             32.9494248075       18.6997679465       83.3823686216  TIP3      1042            0.0000000000
     20477      1179  TIP3      OH2            34.7994298510       34.3209410521       82.2288284608  TIP3      1043            0.0000000000
     20478      1179  TIP3      H1             34.1124724831       34.3069247317       81.5315107078  TIP3      1043            0.0000000000
     20479      1179  TIP3      H2             34.8277861389       35.2935326808       82.3443393281  TIP3      1043            0.0000000000
     20480      1180  TIP3      OH2            50.1078151196       28.9670269388       72.4109868814  TIP3      1044            0.0000000000
     20481      1180  TIP3      H1             50.0406033900       29.2804383606       73.3277232567  TIP3      1044            0.0000000000
     20482      1180  TIP3      H2             49.9472389373       29.8200827335       71.9382013511  TIP3      1044            0.0000000000
     20483      1181  TIP3      OH2            49.0788897074       27.7124555023       75.8135346415  TIP3      1045            0.0000000000
     20484      1181  TIP3      H1             49.2016264314       27.2635056624       76.6823279103  TIP3      1045            0.0000000000
     20485      1181  TIP3      H2             48.2573677804       27.2888711791       75.4821197338  TIP3      1045            0.0000000000
     20486      1182  TIP3      OH2            40.7278804645       27.5640912843       77.1199495613  TIP3      1046            0.0000000000
     20487      1182  TIP3      H1             40.5581303379       26.8075257519       77.7052630380  TIP3      1046            0.0000000000
     20488      1182  TIP3      H2             41.4287860671       28.0081682816       77.6354441217  TIP3      1046            0.0000000000
     20489      1183  TIP3      OH2            52.1067354873       30.7634564893       74.9586653021  TIP3      1047            0.0000000000
     20490      1183  TIP3      H1             52.2116191741       29.9678405649       75.5007497750  TIP3      1047            0.0000000000
     20491      1183  TIP3      H2             52.4833771428       31.4517705818       75.5400164845  TIP3      1047            0.0000000000
     20492      1184  TIP3      OH2            42.0959161658       32.3192659010       75.5982235126  TIP3      1048            0.0000000000
     20493      1184  TIP3      H1             41.8120729481       31.4059855665       75.3970013048  TIP3      1048            0.0000000000
     20494      1184  TIP3      H2             43.0609674560       32.1583864757       75.5077062922  TIP3      1048            0.0000000000
     20495      1185  TIP3      OH2            38.7073764443       25.4744156909       71.1766243356  TIP3      1049            0.0000000000
     20496      1185  TIP3      H1             38.7708299876       26.4116447428       70.9537354778  TIP3      1049            0.0000000000
     20497      1185  TIP3      H2             37.8347641508       25.4378418129       71.6082139240  TIP3      1049            0.0000000000
     20498      1186  TIP3      OH2            38.6886941462       27.5953375532       73.8536973293  TIP3      1050            0.0000000000
     20499      1186  TIP3      H1             38.9683983966       26.6503937710       73.9463851669  TIP3      1050            0.0000000000
     20500      1186  TIP3      H2             39.4311836528       27.9639531755       73.3573995657  TIP3      1050            0.0000000000
     20501      1187  TIP3      OH2            49.6569825425       36.1770126574       74.1252361576  TIP3      1051            0.0000000000
     20502      1187  TIP3      H1             50.3071095577       35.5300723470       73.7456901240  TIP3      1051            0.0000000000
     20503      1187  TIP3      H2             49.1283117663       35.5580698346       74.6506004101  TIP3      1051            0.0000000000
     20504      1188  TIP3      OH2            46.8759903032       30.6944782954       76.5896972197  TIP3      1052            0.0000000000
     20505      1188  TIP3      H1             47.1163722126       30.0789181666       75.8862169238  TIP3      1052            0.0000000000
     20506      1188  TIP3      H2             47.7530899396       31.0447456327       76.8436296487  TIP3      1052            0.0000000000
     20507      1189  TIP3      OH2            55.1697472968       21.7027795619       76.5928463695  TIP3      1053            0.0000000000
     20508      1189  TIP3      H1             55.4008133756       22.2992245834       77.3500645457  TIP3      1053            0.0000000000
     20509      1189  TIP3      H2             56.0419745208       21.4538654302       76.2563212627  TIP3      1053            0.0000000000
     20510      1190  TIP3      OH2            50.6564724941       25.0312944456       76.5201577654  TIP3      1054            0.0000000000
     20511      1190  TIP3      H1             50.7562863715       24.0504070228       76.5792365698  TIP3      1054            0.0000000000
     20512      1190  TIP3      H2             50.3459294153       25.0716092472       75.5874763793  TIP3      1054            0.0000000000
     20513      1191  TIP3      OH2            43.5676684468       22.4597120401       73.1095248073  TIP3      1055            0.0000000000
     20514      1191  TIP3      H1             43.6307628380       23.4365653150       73.0235085191  TIP3      1055            0.0000000000
     20515      1191  TIP3      H2             42.8368129932       22.2604904507       72.4971504222  TIP3      1055            0.0000000000
     20516      1192  TIP3      OH2            51.0061899595       22.7300704996       72.2245605872  TIP3      1056            0.0000000000
     20517      1192  TIP3      H1             51.5196914250       22.4864503121       73.0265664543  TIP3      1056            0.0000000000
     20518      1192  TIP3      H2             51.6435856435       23.3372778199       71.8000959922  TIP3      1056            0.0000000000
     20519      1193  TIP3      OH2            39.6151496282       25.1128419505       73.8760040304  TIP3      1057            0.0000000000
     20520      1193  TIP3      H1             40.2608478409       24.6108822688       74.4133975406  TIP3      1057            0.0000000000
     20521      1193  TIP3      H2             40.0820788706       25.0427186075       73.0241653650  TIP3      1057            0.0000000000
     20522      1194  TIP3      OH2            44.6649599954       27.0513976660       74.0691159185  TIP3      1058            0.0000000000
     20523      1194  TIP3      H1             45.5489927795       26.8001185426       74.4196088588  TIP3      1058            0.0000000000
     20524      1194  TIP3      H2             44.4286898013       26.2265077114       73.5848993189  TIP3      1058            0.0000000000
     20525      1195  TIP3      OH2            55.5841516007       23.1612584700       78.8650750038  TIP3      1059            0.0000000000
     20526      1195  TIP3      H1             55.2109397990       24.0399759281       78.6095162820  TIP3      1059            0.0000000000
     20527      1195  TIP3      H2             56.0071240580       23.3465118330       79.7151284869  TIP3      1059            0.0000000000
     20528      1196  TIP3      OH2            42.5207031973       21.4100397987       77.5416799655  TIP3      1060            0.0000000000
     20529      1196  TIP3      H1             42.0567732320       22.2805772870       77.5356918394  TIP3      1060            0.0000000000
     20530      1196  TIP3      H2             42.5115331705       21.2379329834       78.4955412190  TIP3      1060            0.0000000000
     20531      1197  TIP3      OH2            49.1216808862       31.1904573482       71.3043835541  TIP3      1061            0.0000000000
     20532      1197  TIP3      H1             49.4044227870       31.6590360567       70.4846824272  TIP3      1061            0.0000000000
     20533      1197  TIP3      H2             48.6697043380       31.9202638403       71.7698038846  TIP3      1061            0.0000000000
     20534      1198  TIP3      OH2            44.8205350780       29.4059081052       77.7064081465  TIP3      1062            0.0000000000
     20535      1198  TIP3      H1             44.1695682823       30.0587860551       78.0484203818  TIP3      1062            0.0000000000
     20536      1198  TIP3      H2             45.4930565999       30.0066895301       77.3093095398  TIP3      1062            0.0000000000
     20537      1199  TIP3      OH2            53.0278023495       22.6914905686       74.2167500569  TIP3      1063            0.0000000000
     20538      1199  TIP3      H1             53.3765696034       21.9236402915       74.6948974350  TIP3      1063            0.0000000000
     20539      1199  TIP3      H2             53.7085916021       23.3608914566       74.3912921040  TIP3      1063            0.0000000000
     20540      1200  TIP3      OH2            41.5016269857       23.5753581269       74.9379084155  TIP3      1064            0.0000000000
     20541      1200  TIP3      H1             41.6100601181       24.1077908807       75.7610490644  TIP3      1064            0.0000000000
     20542      1200  TIP3      H2             42.3999503204       23.2223621478       74.8538536124  TIP3      1064            0.0000000000
     20543      1201  TIP3      OH2            43.1658895871       31.3257681146       78.6317953448  TIP3      1065            0.0000000000
     20544      1201  TIP3      H1             42.8899099531       31.6836428270       77.7697811532  TIP3      1065            0.0000000000
     20545      1201  TIP3      H2             42.3107109454       31.4173271620       79.1226941376  TIP3      1065            0.0000000000
     20546      1202  TIP3      OH2            52.9142676039       32.7533769298       76.6565354106  TIP3      1066            0.0000000000
     20547      1202  TIP3      H1             51.9617141340       32.9795304077       76.7429760568  TIP3      1066            0.0000000000
     20548      1202  TIP3      H2             53.1975624866       33.5265610156       76.1344960441  TIP3      1066            0.0000000000
     20549      1203  TIP3      OH2            52.6975203297       21.1193828775       77.6716058272  TIP3      1067            0.0000000000
     20550      1203  TIP3      H1             52.0614156276       21.7224243527       77.2130845687  TIP3      1067            0.0000000000
     20551      1203  TIP3      H2             53.5048970671       21.2138226115       77.1185341456  TIP3      1067            0.0000000000
     20552      1204  TIP3      OH2            45.7989053805       19.3986858095       75.2392479685  TIP3      1068            0.0000000000
     20553      1204  TIP3      H1             45.7993460817       18.4543203211       74.9910864999  TIP3      1068            0.0000000000
     20554      1204  TIP3      H2             44.8238145038       19.5446694540       75.3497638048  TIP3      1068            0.0000000000
     20555      1205  TIP3      OH2            51.4546384062       34.5233570512       73.0527313635  TIP3      1069            0.0000000000
     20556      1205  TIP3      H1             51.4999084916       33.9692043665       72.2538707101  TIP3      1069            0.0000000000
     20557      1205  TIP3      H2             52.3304913251       34.9645768843       72.9821152492  TIP3      1069            0.0000000000
     20558      1206  TIP3      OH2            52.7234459848       32.5324182115       71.5330082727  TIP3      1070            0.0000000000
     20559      1206  TIP3      H1             52.0782802600       32.4570080762       70.7914291434  TIP3      1070            0.0000000000
     20560      1206  TIP3      H2             52.3096384692       31.9837008870       72.2235236195  TIP3      1070            0.0000000000
     20561      1207  TIP3      OH2            53.9757300064       30.9586115853       80.2084824605  TIP3      1071            0.0000000000
     20562      1207  TIP3      H1             54.0879502813       30.3339848928       79.4514223387  TIP3      1071            0.0000000000
     20563      1207  TIP3      H2             54.1388923196       31.8191453218       79.7611353192  TIP3      1071            0.0000000000
     20564      1208  TIP3      OH2            48.6456625088       27.9886926181       70.2965749497  TIP3      1072            0.0000000000
     20565      1208  TIP3      H1             47.8539941904       28.4500397103       70.6093990981  TIP3      1072            0.0000000000
     20566      1208  TIP3      H2             49.3282098216       28.4752731577       70.8059994582  TIP3      1072            0.0000000000
     20567      1209  TIP3      OH2            56.0093344486       27.4040621372       77.8365068143  TIP3      1073            0.0000000000
     20568      1209  TIP3      H1             55.4291573764       28.1788767645       78.0046206568  TIP3      1073            0.0000000000
     20569      1209  TIP3      H2             56.5770254184       27.7600599647       77.1299316172  TIP3      1073            0.0000000000
     20570      1210  TIP3      OH2            52.1666233267       27.3052258886       70.7879822209  TIP3      1074            0.0000000000
     20571      1210  TIP3      H1             51.5914206256       27.9811601822       71.1993913428  TIP3      1074            0.0000000000
     20572      1210  TIP3      H2             52.7431273523       27.0020876207       71.5250922967  TIP3      1074            0.0000000000
     20573      1211  TIP3      OH2            52.0037895498       26.5940236014       79.8796797975  TIP3      1075            0.0000000000
     20574      1211  TIP3      H1             51.8428942268       27.4710570840       80.2508440302  TIP3      1075            0.0000000000
     20575      1211  TIP3      H2             51.2982079336       26.5787304657       79.1996366002  TIP3      1075            0.0000000000
     20576      1212  TIP3      OH2            43.2277728805       28.9575384610       72.8734071653  TIP3      1076            0.0000000000
     20577      1212  TIP3      H1             42.4337260023       28.5457216254       72.4871734712  TIP3      1076            0.0000000000
     20578      1212  TIP3      H2             43.7974378881       28.2052482477       73.1676391705  TIP3      1076            0.0000000000
     20579      1213  TIP3      OH2            44.7478646823       31.9066615896       75.3480370986  TIP3      1077            0.0000000000
     20580      1213  TIP3      H1             44.7255150284       31.8787279416       74.3703215378  TIP3      1077            0.0000000000
     20581      1213  TIP3      H2             45.5989053292       31.4912731829       75.5883626814  TIP3      1077            0.0000000000
     20582      1214  TIP3      OH2            43.6490657519       27.3241513534       76.6155499656  TIP3      1078            0.0000000000
     20583      1214  TIP3      H1             43.8244573571       27.3686565103       75.6532674825  TIP3      1078            0.0000000000
     20584      1214  TIP3      H2             44.1443031567       28.1078802109       76.9472943403  TIP3      1078            0.0000000000
     20585      1215  TIP3      OH2            50.3290373088       33.3994926222       76.9652530567  TIP3      1079            0.0000000000
     20586      1215  TIP3      H1             50.2510276715       34.1024647522       77.6378922169  TIP3      1079            0.0000000000
     20587      1215  TIP3      H2             49.8000374529       32.6901888680       77.3740984717  TIP3      1079            0.0000000000
     20588      1216  TIP3      OH2            44.8148087350       31.6249422387       80.9014193581  TIP3      1080            0.0000000000
     20589      1216  TIP3      H1             44.1389907303       32.2996026690       81.1653060530  TIP3      1080            0.0000000000
     20590      1216  TIP3      H2             44.4776921664       31.4245397019       80.0040083793  TIP3      1080            0.0000000000
     20591      1217  TIP3      OH2            41.5163215667       28.5726497141       79.7039538590  TIP3      1081            0.0000000000
     20592      1217  TIP3      H1             41.5649521215       29.2790615202       80.3683372671  TIP3      1081            0.0000000000
     20593      1217  TIP3      H2             41.1035500684       27.8471708153       80.2080122605  TIP3      1081            0.0000000000
     20594      1218  TIP3      OH2            47.9041856412       33.7239504040       71.9624722079  TIP3      1082            0.0000000000
     20595      1218  TIP3      H1             48.5955178008       34.3995398422       72.0193471415  TIP3      1082            0.0000000000
     20596      1218  TIP3      H2             47.6492882351       33.7263306693       71.0241009433  TIP3      1082            0.0000000000
     20597      1219  TIP3      OH2            43.1708889716       33.5750096513       81.7686535385  TIP3      1083            0.0000000000
     20598      1219  TIP3      H1             42.9607551078       33.9211465681       80.8725986271  TIP3      1083            0.0000000000
     20599      1219  TIP3      H2             42.2534119287       33.4325660481       82.0977490011  TIP3      1083            0.0000000000
     20600      1220  TIP3      OH2            54.3525195090       18.8026854190       68.3016198281  TIP3      1084            0.0000000000
     20601      1220  TIP3      H1             53.4460093595       19.0822442617       68.5002695703  TIP3      1084            0.0000000000
     20602      1220  TIP3      H2             54.3659155620       19.0578803263       67.3443118560  TIP3      1084            0.0000000000
     20603      1221  TIP3      OH2            41.2120009350       27.6308241316       71.1429789198  TIP3      1085            0.0000000000
     20604      1221  TIP3      H1             41.4822254601       28.2209959670       70.4202532641  TIP3      1085            0.0000000000
     20605      1221  TIP3      H2             41.3810288729       26.7420346564       70.7984276806  TIP3      1085            0.0000000000
     20606      1222  TIP3      OH2            38.8210290321       30.3391776002       79.1960201086  TIP3      1086            0.0000000000
     20607      1222  TIP3      H1             38.3537794845       30.3471329913       78.3459940138  TIP3      1086            0.0000000000
     20608      1222  TIP3      H2             39.2171980029       29.4463667556       79.1787917099  TIP3      1086            0.0000000000
     20609      1223  TIP3      OH2            38.4903051300       33.0094021064       75.9762494242  TIP3      1087            0.0000000000
     20610      1223  TIP3      H1             39.4242975317       32.7943871147       75.8867745869  TIP3      1087            0.0000000000
     20611      1223  TIP3      H2             38.5242100218       33.7744357216       76.5679427340  TIP3      1087            0.0000000000
     20612      1224  TIP3      OH2            56.5573835914       33.6449267315       81.7326300935  TIP3      1088            0.0000000000
     20613      1224  TIP3      H1             56.4581106812       32.6955165793       81.5411925152  TIP3      1088            0.0000000000
     20614      1224  TIP3      H2             55.7237411212       33.7843758772       82.2358231787  TIP3      1088            0.0000000000
     20615      1225  TIP3      OH2            47.1115377027       33.0582817764       80.7140178755  TIP3      1089            0.0000000000
     20616      1225  TIP3      H1             47.3419194659       33.8828578320       81.1932851966  TIP3      1089            0.0000000000
     20617      1225  TIP3      H2             46.1651320524       32.9236060455       80.9145903012  TIP3      1089            0.0000000000
     20618      1226  TIP3      OH2            46.9940155335       36.8627373004       69.7944383220  TIP3      1090            0.0000000000
     20619      1226  TIP3      H1             47.4127234946       36.8038439006       68.8946714219  TIP3      1090            0.0000000000
     20620      1226  TIP3      H2             47.6260146829       37.4290751569       70.2612538115  TIP3      1090            0.0000000000
     20621      1227  TIP3      OH2            41.6496412224       35.6007571565       72.4265654864  TIP3      1091            0.0000000000
     20622      1227  TIP3      H1             41.9920674192       35.5864912145       73.3452058926  TIP3      1091            0.0000000000
     20623      1227  TIP3      H2             41.0336668574       34.8387843999       72.4486041739  TIP3      1091            0.0000000000
     20624      1228  TIP3      OH2            50.7598871897       36.4565833963       67.4483655223  TIP3      1092            0.0000000000
     20625      1228  TIP3      H1             51.1381351363       36.4380644958       66.5497353198  TIP3      1092            0.0000000000
     20626      1228  TIP3      H2             50.6979613171       35.5054140242       67.6583924355  TIP3      1092            0.0000000000
     20627      1229  TIP3      OH2            50.0686680831       35.8878551957       70.2816539661  TIP3      1093            0.0000000000
     20628      1229  TIP3      H1             49.1263740016       35.8553935118       70.0919470759  TIP3      1093            0.0000000000
     20629      1229  TIP3      H2             50.3476374263       34.9795020699       70.0418232000  TIP3      1093            0.0000000000
     20630      1230  TIP3      OH2            53.7486929917       25.0630673603       82.0674639252  TIP3      1094            0.0000000000
     20631      1230  TIP3      H1             53.1031899415       25.3250599102       81.3860531723  TIP3      1094            0.0000000000
     20632      1230  TIP3      H2             53.5934605723       24.1039565849       82.1222392087  TIP3      1094            0.0000000000
     20633      1231  TIP3      OH2            40.9327989052       31.6848539833       80.0357533236  TIP3      1095            0.0000000000
     20634      1231  TIP3      H1             40.9607815991       31.3619900994       80.9591500894  TIP3      1095            0.0000000000
     20635      1231  TIP3      H2             40.0942351627       31.2665678370       79.7360719922  TIP3      1095            0.0000000000
     20636      1232  TIP3      OH2            43.2105816824       19.7726755184       75.4064952335  TIP3      1096            0.0000000000
     20637      1232  TIP3      H1             42.3294056173       19.3961182718       75.2205038753  TIP3      1096            0.0000000000
     20638      1232  TIP3      H2             42.9504480410       20.5750072953       75.9167093190  TIP3      1096            0.0000000000
     20639      1233  TIP3      OH2            48.3729772003       19.6888030901       79.0601190962  TIP3      1097            0.0000000000
     20640      1233  TIP3      H1             48.7962118405       19.3147421193       79.8716535484  TIP3      1097            0.0000000000
     20641      1233  TIP3      H2             47.4343232613       19.7299654995       79.3344230936  TIP3      1097            0.0000000000
     20642      1234  TIP3      OH2            51.4372323354       23.7845103996       80.8269182654  TIP3      1098            0.0000000000
     20643      1234  TIP3      H1             50.7122016784       23.3524834268       81.3391174143  TIP3      1098            0.0000000000
     20644      1234  TIP3      H2             51.1762673669       24.7108029630       80.8954150091  TIP3      1098            0.0000000000
     20645      1235  TIP3      OH2            52.4808086063       28.6638848235       67.0403061616  TIP3      1099            0.0000000000
     20646      1235  TIP3      H1             52.5849337517       29.5851228368       66.7345340212  TIP3      1099            0.0000000000
     20647      1235  TIP3      H2             52.4488578957       28.8790079195       67.9894961734  TIP3      1099            0.0000000000
     20648      1236  TIP3      OH2            44.9310272047       25.0396138843       77.0860252752  TIP3      1100            0.0000000000
     20649      1236  TIP3      H1             44.0604404346       24.6037843035       77.2104756567  TIP3      1100            0.0000000000
     20650      1236  TIP3      H2             44.5880436422       25.9647097926       77.0220842040  TIP3      1100            0.0000000000
     20651      1237  TIP3      OH2            43.8406332222       25.0134833138       72.5545033288  TIP3      1101            0.0000000000
     20652      1237  TIP3      H1             42.8989826891       25.2522416217       72.4112785038  TIP3      1101            0.0000000000
     20653      1237  TIP3      H2             44.1595729411       24.9105643321       71.6172314469  TIP3      1101            0.0000000000
     20654      1238  TIP3      OH2            49.0921677526       25.1622751563       70.4480927293  TIP3      1102            0.0000000000
     20655      1238  TIP3      H1             48.8400145187       26.1085853000       70.5074909877  TIP3      1102            0.0000000000
     20656      1238  TIP3      H2             49.8939631511       25.2395285709       69.8788872788  TIP3      1102            0.0000000000
     20657      1239  TIP3      OH2            48.2866216833       26.1569814572       81.9523113601  TIP3      1103            0.0000000000
     20658      1239  TIP3      H1             47.7901680052       25.3489530831       82.1523373922  TIP3      1103            0.0000000000
     20659      1239  TIP3      H2             48.9194952137       26.1871977047       82.6943823949  TIP3      1103            0.0000000000
     20660      1240  TIP3      OH2            50.0226436311       25.3323475507       73.9255790473  TIP3      1104            0.0000000000
     20661      1240  TIP3      H1             50.1588037060       26.2149701176       73.5389146449  TIP3      1104            0.0000000000
     20662      1240  TIP3      H2             50.0046101442       24.7627896568       73.1450899417  TIP3      1104            0.0000000000
     20663      1241  TIP3      OH2            40.2968550977       25.9800168422       79.6554490382  TIP3      1105            0.0000000000
     20664      1241  TIP3      H1             41.0663684816       25.6191116091       79.1521359594  TIP3      1105            0.0000000000
     20665      1241  TIP3      H2             39.9971916902       25.1462850570       80.0485460236  TIP3      1105            0.0000000000
     20666      1242  TIP3      OH2            38.4548180431       22.4380978345       73.1545434274  TIP3      1106            0.0000000000
     20667      1242  TIP3      H1             39.0093911327       22.2006930447       73.9213972343  TIP3      1106            0.0000000000
     20668      1242  TIP3      H2             38.4717998682       23.4104178965       73.1835145895  TIP3      1106            0.0000000000
     20669      1243  TIP3      OH2            38.7492030066       23.0005485545       68.3274984173  TIP3      1107            0.0000000000
     20670      1243  TIP3      H1             39.4230651066       23.2767370546       67.6893672307  TIP3      1107            0.0000000000
     20671      1243  TIP3      H2             37.9839206605       23.4904502922       67.9352212917  TIP3      1107            0.0000000000
     20672      1244  TIP3      OH2            49.3733219886       26.5559450583       78.2413812298  TIP3      1108            0.0000000000
     20673      1244  TIP3      H1             49.8839681647       25.8683802541       77.7432132057  TIP3      1108            0.0000000000
     20674      1244  TIP3      H2             48.7245001836       26.0137995232       78.7448848558  TIP3      1108            0.0000000000
     20675      1245  TIP3      OH2            46.4968138118       22.3169040693       73.1401899728  TIP3      1109            0.0000000000
     20676      1245  TIP3      H1             45.5496470685       22.4214640312       72.9016977435  TIP3      1109            0.0000000000
     20677      1245  TIP3      H2             46.4618788312       21.9951775525       74.0527949075  TIP3      1109            0.0000000000
     20678      1246  TIP3      OH2            41.2780776473       24.5476168886       71.7792815763  TIP3      1110            0.0000000000
     20679      1246  TIP3      H1             40.4282920218       24.6680655675       71.2920611556  TIP3      1110            0.0000000000
     20680      1246  TIP3      H2             41.4231736200       23.5897980939       71.7688832247  TIP3      1110            0.0000000000
     20681      1247  TIP3      OH2            44.5500127229       24.5136395110       70.0540329511  TIP3      1111            0.0000000000
     20682      1247  TIP3      H1             45.4605616484       24.2617518727       69.8145532179  TIP3      1111            0.0000000000
     20683      1247  TIP3      H2             44.0580261362       24.0021150979       69.3627676609  TIP3      1111            0.0000000000
     20684      1248  TIP3      OH2            50.7345821660       22.3795311174       76.4204021641  TIP3      1112            0.0000000000
     20685      1248  TIP3      H1             50.0410842670       22.3045674178       77.1079479782  TIP3      1112            0.0000000000
     20686      1248  TIP3      H2             50.3945096262       21.7597079023       75.7404013308  TIP3      1112            0.0000000000
     20687      1249  TIP3      OH2            53.5694195190       37.5654824838       82.9281713884  TIP3      1113            0.0000000000
     20688      1249  TIP3      H1             53.9554571231       37.7822802635       82.0565151297  TIP3      1113            0.0000000000
     20689      1249  TIP3      H2             54.2941046255       37.8317918772       83.5210716176  TIP3      1113            0.0000000000
     20690      1250  TIP3      OH2            41.3552014617       30.0500042576       82.4187095811  TIP3      1114            0.0000000000
     20691      1250  TIP3      H1             42.0457612265       29.8948348848       83.1041822936  TIP3      1114            0.0000000000
     20692      1250  TIP3      H2             40.5340412808       29.8739795897       82.9251096392  TIP3      1114            0.0000000000
     20693      1251  TIP3      OH2            46.8536627428       26.0947738246       75.3645951873  TIP3      1115            0.0000000000
     20694      1251  TIP3      H1             47.4194034962       25.3774981235       75.0299026898  TIP3      1115            0.0000000000
     20695      1251  TIP3      H2             46.2986836477       25.6234486175       76.0302854622  TIP3      1115            0.0000000000
     20696      1252  TIP3      OH2            41.9041424119       21.6689176195       71.0948584419  TIP3      1116            0.0000000000
     20697      1252  TIP3      H1             41.0792819749       21.2014904729       71.3454674483  TIP3      1116            0.0000000000
     20698      1252  TIP3      H2             41.7285772753       22.0430772471       70.2156781131  TIP3      1116            0.0000000000
     20699      1253  TIP3      OH2            47.2787789644       23.5659796208       76.8517168092  TIP3      1117            0.0000000000
     20700      1253  TIP3      H1             46.4390999264       24.0680612645       76.9425210199  TIP3      1117            0.0000000000
     20701      1253  TIP3      H2             47.7042074950       23.7796821345       77.6951371861  TIP3      1117            0.0000000000
     20702      1254  TIP3      OH2            54.3356135521       29.5075909177       78.0798364236  TIP3      1118            0.0000000000
     20703      1254  TIP3      H1             54.7524321683       30.0595824850       77.3697162335  TIP3      1118            0.0000000000
     20704      1254  TIP3      H2             53.5148946464       29.2232624361       77.6312174148  TIP3      1118            0.0000000000
     20705      1255  TIP3      OH2            48.2959583718       30.6309291001       80.5966404697  TIP3      1119            0.0000000000
     20706      1255  TIP3      H1             47.6884188807       29.9762139464       80.9486797672  TIP3      1119            0.0000000000
     20707      1255  TIP3      H2             47.8079771684       31.4538140853       80.7896660054  TIP3      1119            0.0000000000
     20708      1256  TIP3      OH2            51.3122595958       25.3558136500       68.9456807182  TIP3      1120            0.0000000000
     20709      1256  TIP3      H1             51.7670085197       24.7099800397       69.5117551227  TIP3      1120            0.0000000000
     20710      1256  TIP3      H2             51.6767357800       26.1843976571       69.3182298947  TIP3      1120            0.0000000000
     20711      1257  TIP3      OH2            42.2237833484       29.4954572089       75.3548140451  TIP3      1121            0.0000000000
     20712      1257  TIP3      H1             42.6291453621       29.3794712269       74.4679101525  TIP3      1121            0.0000000000
     20713      1257  TIP3      H2             42.3615020145       28.6208711390       75.7642085327  TIP3      1121            0.0000000000
     20714      1258  TIP3      OH2            38.7258592162       27.9783919045       80.8848693378  TIP3      1122            0.0000000000
     20715      1258  TIP3      H1             39.2714723737       27.3100438972       81.3302652704  TIP3      1122            0.0000000000
     20716      1258  TIP3      H2             38.5626274332       27.5225783630       80.0422954297  TIP3      1122            0.0000000000
     20717      1259  TIP3      OH2            45.2880788747       27.3458770194       82.6077176524  TIP3      1123            0.0000000000
     20718      1259  TIP3      H1             44.5820337866       26.9702799024       82.0292628922  TIP3      1123            0.0000000000
     20719      1259  TIP3      H2             46.0757134217       27.0845574002       82.1099426982  TIP3      1123            0.0000000000
     20720      1260  TIP3      OH2            50.7190278822       32.6855179715       80.7408782976  TIP3      1124            0.0000000000
     20721      1260  TIP3      H1             49.8718672459       32.7542135370       80.2877081877  TIP3      1124            0.0000000000
     20722      1260  TIP3      H2             50.4774249520       33.1495749993       81.5628323270  TIP3      1124            0.0000000000
     20723      1261  TIP3      OH2            56.4132132014       30.9474983753       81.3312643219  TIP3      1125            0.0000000000
     20724      1261  TIP3      H1             55.4828776864       30.8736353451       81.0126382627  TIP3      1125            0.0000000000
     20725      1261  TIP3      H2             56.8855901647       30.7197744333       80.5034981866  TIP3      1125            0.0000000000
     20726      1262  TIP3      OH2            52.2456679874       28.1881251129       76.6416311725  TIP3      1126            0.0000000000
     20727      1262  TIP3      H1             51.2814001706       28.1462027567       76.5121334426  TIP3      1126            0.0000000000
     20728      1262  TIP3      H2             52.5523882464       27.6101322975       75.9107214901  TIP3      1126            0.0000000000
     20729      1263  TIP3      OH2            43.7509054535       32.7337917700       72.8291450062  TIP3      1127            0.0000000000
     20730      1263  TIP3      H1             44.1273909384       33.5662977848       72.4710743909  TIP3      1127            0.0000000000
     20731      1263  TIP3      H2             42.8307331913       32.8241133140       72.5423757679  TIP3      1127            0.0000000000
     20732      1264  TIP3      OH2            45.2601302861       30.5762955391       71.8374233684  TIP3      1128            0.0000000000
     20733      1264  TIP3      H1             44.8300294443       31.4365764176       72.0060633115  TIP3      1128            0.0000000000
     20734      1264  TIP3      H2             44.5469706627       29.9781210480       72.1241181221  TIP3      1128            0.0000000000
     20735      1265  TIP3      OH2            46.1034604596       34.7576146836       78.6780125630  TIP3      1129            0.0000000000
     20736      1265  TIP3      H1             46.8100063745       35.3773047932       78.4058207661  TIP3      1129            0.0000000000
     20737      1265  TIP3      H2             46.5463285096       34.2934787637       79.4158358091  TIP3      1129            0.0000000000
     20738      1266  TIP3      OH2            44.2543593823       35.1404636336       71.7203152898  TIP3      1130            0.0000000000
     20739      1266  TIP3      H1             43.2884468358       35.3128126687       71.8327587366  TIP3      1130            0.0000000000
     20740      1266  TIP3      H2             44.6103413667       36.0323234325       71.9096896923  TIP3      1130            0.0000000000
     20741      1267  TIP3      OH2            49.2411004148       30.9164170899       78.0198069332  TIP3      1131            0.0000000000
     20742      1267  TIP3      H1             49.0173514697       30.8899458085       78.9766986554  TIP3      1131            0.0000000000
     20743      1267  TIP3      H2             49.6414430804       30.0421273647       77.9305180498  TIP3      1131            0.0000000000
     20744      1268  TIP3      OH2            52.4912747884       31.3678784524       67.1670294142  TIP3      1132            0.0000000000
     20745      1268  TIP3      H1             52.1146482892       31.6256954586       68.0389375597  TIP3      1132            0.0000000000
     20746      1268  TIP3      H2             51.6986192635       31.5472982860       66.6452546368  TIP3      1132            0.0000000000
     20747      1269  TIP3      OH2            52.4317967408       35.2912144741       80.1957521810  TIP3      1133            0.0000000000
     20748      1269  TIP3      H1             51.5627560765       34.8568584395       80.0895579917  TIP3      1133            0.0000000000
     20749      1269  TIP3      H2             52.4166233420       35.9535518164       79.4794311403  TIP3      1133            0.0000000000
     20750      1270  TIP3      OH2            40.7222887055       22.5577763859       80.1489399910  TIP3      1134            0.0000000000
     20751      1270  TIP3      H1             40.9344831489       23.0455377816       79.3239923195  TIP3      1134            0.0000000000
     20752      1270  TIP3      H2             39.9160034922       22.0495951442       79.9848993646  TIP3      1134            0.0000000000
     20753      1271  TIP3      OH2            52.7834425808       29.8059424626       69.5952034705  TIP3      1135            0.0000000000
     20754      1271  TIP3      H1             52.7434526210       28.9701733034       70.0766025106  TIP3      1135            0.0000000000
     20755      1271  TIP3      H2             53.6616662339       30.1449192834       69.8402477838  TIP3      1135            0.0000000000
     20756      1272  TIP3      OH2            40.0930423456       34.2598888955       78.3140624941  TIP3      1136            0.0000000000
     20757      1272  TIP3      H1             40.6905466321       33.5030980867       78.2966810975  TIP3      1136            0.0000000000
     20758      1272  TIP3      H2             40.4668595089       34.7505770879       79.0584736698  TIP3      1136            0.0000000000
     20759      1273  TIP3      OH2            44.7417123534       31.9517655786       68.0331371639  TIP3      1137            0.0000000000
     20760      1273  TIP3      H1             45.5810884907       31.8694771665       68.5107405471  TIP3      1137            0.0000000000
     20761      1273  TIP3      H2             44.5143142610       32.8851607647       68.1796284539  TIP3      1137            0.0000000000
     20762      1274  TIP3      OH2            49.4835141233       22.2283890413       79.0359555292  TIP3      1138            0.0000000000
     20763      1274  TIP3      H1             50.1571441512       22.1969583576       79.7259635634  TIP3      1138            0.0000000000
     20764      1274  TIP3      H2             49.0929752497       21.3325024395       79.1084076363  TIP3      1138            0.0000000000
     20765      1275  TIP3      OH2            50.0622933282       21.7436506239       69.9907599310  TIP3      1139            0.0000000000
     20766      1275  TIP3      H1             49.8653194154       22.6426202198       69.6943804176  TIP3      1139            0.0000000000
     20767      1275  TIP3      H2             50.4910440263       21.9314938769       70.8584711081  TIP3      1139            0.0000000000
     20768      1276  TIP3      OH2            47.2807924222       33.5757483108       68.8418039590  TIP3      1140            0.0000000000
     20769      1276  TIP3      H1             46.4117286684       33.9951370440       68.9565370017  TIP3      1140            0.0000000000
     20770      1276  TIP3      H2             47.4378697171       33.7030654481       67.8838095955  TIP3      1140            0.0000000000
     20771      1277  TIP3      OH2            47.0669902581       23.2807362198       70.3672950341  TIP3      1141            0.0000000000
     20772      1277  TIP3      H1             47.6594557488       24.0662669708       70.4156694980  TIP3      1141            0.0000000000
     20773      1277  TIP3      H2             46.8415511989       23.1532213412       71.3067691016  TIP3      1141            0.0000000000
     20774      1278  TIP3      OH2            48.2107588352       24.7240362073       79.6690094903  TIP3      1142            0.0000000000
     20775      1278  TIP3      H1             48.5593543808       25.2005896140       80.4550465810  TIP3      1142            0.0000000000
     20776      1278  TIP3      H2             48.7303926659       23.8902008740       79.6558531672  TIP3      1142            0.0000000000
     20777      1279  TIP3      OH2            47.9459804909       20.7310588742       71.3906075045  TIP3      1143            0.0000000000
     20778      1279  TIP3      H1             47.3935095568       21.3018874778       71.9711267617  TIP3      1143            0.0000000000
     20779      1279  TIP3      H2             48.5735139477       21.3693344571       70.9847096270  TIP3      1143            0.0000000000
     20780      1280  TIP3      OH2            45.0256688686       34.9932615711       69.1211823388  TIP3      1144            0.0000000000
     20781      1280  TIP3      H1             45.8057420396       35.5821362803       69.1430997573  TIP3      1144            0.0000000000
     20782      1280  TIP3      H2             44.5987313047       35.2331386409       69.9704677670  TIP3      1144            0.0000000000
     20783      1281  TIP3      OH2            53.5546423015       22.1928320892       80.5998562867  TIP3      1145            0.0000000000
     20784      1281  TIP3      H1             52.6495037412       22.5706874457       80.6152359401  TIP3      1145            0.0000000000
     20785      1281  TIP3      H2             53.8816037786       22.4951745705       79.7282322474  TIP3      1145            0.0000000000
     20786      1282  TIP3      OH2            52.5565623749       26.2884480460       74.7401846660  TIP3      1146            0.0000000000
     20787      1282  TIP3      H1             51.9612922216       25.7916339234       75.3488690345  TIP3      1146            0.0000000000
     20788      1282  TIP3      H2             53.4202947525       25.8929054882       75.0314756865  TIP3      1146            0.0000000000
     20789      1283  TIP3      OH2            40.2913883650       24.4724099952       65.8598419545  TIP3      1147            0.0000000000
     20790      1283  TIP3      H1             40.9584587387       25.1479623146       66.0701581020  TIP3      1147            0.0000000000
     20791      1283  TIP3      H2             39.4567710002       24.9577596010       65.8040788016  TIP3      1147            0.0000000000
     20792      1284  TIP3      OH2            53.5837536852       35.4569585125       76.2572482491  TIP3      1148            0.0000000000
     20793      1284  TIP3      H1             53.6687339049       36.1299864126       75.5513601563  TIP3      1148            0.0000000000
     20794      1284  TIP3      H2             54.5019954731       35.4271646070       76.5684020937  TIP3      1148            0.0000000000
     20795      1285  TIP3      OH2            40.5775312682       19.4915983235       75.2390070112  TIP3      1149            0.0000000000
     20796      1285  TIP3      H1             40.5042159412       19.4549798955       74.2595350217  TIP3      1149            0.0000000000
     20797      1285  TIP3      H2             40.4048054358       18.5454611698       75.4774447461  TIP3      1149            0.0000000000
     20798      1286  TIP3      OH2            40.0484798465       33.5315190188       71.8887771669  TIP3      1150            0.0000000000
     20799      1286  TIP3      H1             39.2150084989       33.8661923018       72.2411133946  TIP3      1150            0.0000000000
     20800      1286  TIP3      H2             40.0260666446       33.8553433993       70.9697671420  TIP3      1150            0.0000000000
     20801      1287  TIP3      OH2            38.9552683964       35.9678466747       82.1559750993  TIP3      1151            0.0000000000
     20802      1287  TIP3      H1             39.0507247563       35.9495345225       83.1139242494  TIP3      1151            0.0000000000
     20803      1287  TIP3      H2             38.4430411391       35.1412765108       82.0215191369  TIP3      1151            0.0000000000
     20804      1288  TIP3      OH2            43.7952662685       35.4054748870       83.7708375274  TIP3      1152            0.0000000000
     20805      1288  TIP3      H1             44.7128493832       35.0728485253       83.8141749638  TIP3      1152            0.0000000000
     20806      1288  TIP3      H2             43.4897481840       34.9318326252       82.9680422303  TIP3      1152            0.0000000000
     20807      1289  TIP3      OH2            47.5749795795       34.3247704540       66.0038046588  TIP3      1153            0.0000000000
     20808      1289  TIP3      H1             46.6822539251       34.6239429431       65.6785421807  TIP3      1153            0.0000000000
     20809      1289  TIP3      H2             48.0431799461       34.1082013064       65.1854426405  TIP3      1153            0.0000000000
     20810      1290  TIP3      OH2            50.1000325461       34.1959601452       83.0135641596  TIP3      1154            0.0000000000
     20811      1290  TIP3      H1             49.8205542551       33.2732935925       83.2475357378  TIP3      1154            0.0000000000
     20812      1290  TIP3      H2             50.9772881322       34.2267856920       83.4605808316  TIP3      1154            0.0000000000
     20813      1291  TIP3      OH2            38.8890845547       30.1224869838       83.5141075808  TIP3      1155            0.0000000000
     20814      1291  TIP3      H1             38.5231533466       29.2222566047       83.5831288628  TIP3      1155            0.0000000000
     20815      1291  TIP3      H2             38.4304429307       30.4361168106       82.6976452045  TIP3      1155            0.0000000000
     20816      1292  TIP3      OH2            43.1870476348       30.2326373796       65.9679796047  TIP3      1156            0.0000000000
     20817      1292  TIP3      H1             43.9359061059       30.4732098077       66.5401707347  TIP3      1156            0.0000000000
     20818      1292  TIP3      H2             43.5241415086       30.4707802282       65.0970198741  TIP3      1156            0.0000000000
     20819      1293  TIP3      OH2            45.8195344271       29.9661885320       82.8555912885  TIP3      1157            0.0000000000
     20820      1293  TIP3      H1             45.5446436023       30.5979284055       82.1449594801  TIP3      1157            0.0000000000
     20821      1293  TIP3      H2             45.5022615464       29.1051293770       82.5037229447  TIP3      1157            0.0000000000
     20822      1294  TIP3      OH2            51.5272133031       29.9298839570       80.4807639615  TIP3      1158            0.0000000000
     20823      1294  TIP3      H1             52.3653997961       30.4475057670       80.4219698092  TIP3      1158            0.0000000000
     20824      1294  TIP3      H2             50.8958644481       30.6768535460       80.5072594771  TIP3      1158            0.0000000000
     20825      1295  TIP3      OH2            40.5746835684       26.8670520512       83.0912826875  TIP3      1159            0.0000000000
     20826      1295  TIP3      H1             40.6029648967       26.0817873432       83.6616120266  TIP3      1159            0.0000000000
     20827      1295  TIP3      H2             40.5810915753       27.5552499012       83.7941141187  TIP3      1159            0.0000000000
     20828      1296  TIP3      OH2            44.5848985356       27.9877777868       68.1433591236  TIP3      1160            0.0000000000
     20829      1296  TIP3      H1             44.6756607932       27.4767805984       68.9516369726  TIP3      1160            0.0000000000
     20830      1296  TIP3      H2             44.0435055780       27.3888112146       67.6025242154  TIP3      1160            0.0000000000
     20831      1297  TIP3      OH2            43.8173478851       26.6392185932       80.5090246051  TIP3      1161            0.0000000000
     20832      1297  TIP3      H1             42.9916569422       27.0258422968       80.1878093878  TIP3      1161            0.0000000000
     20833      1297  TIP3      H2             44.4725380601       27.0825612996       79.9360461544  TIP3      1161            0.0000000000
     20834      1298  TIP3      OH2            49.5097211406       28.9833130295       83.6935926428  TIP3      1162            0.0000000000
     20835      1298  TIP3      H1             50.1405372928       28.9141732069       82.9444348123  TIP3      1162            0.0000000000
     20836      1298  TIP3      H2             49.8437453687       28.2372381678       84.2266443955  TIP3      1162            0.0000000000
     20837      1299  TIP3      OH2            45.0062276832       23.9422243425       81.3189855752  TIP3      1163            0.0000000000
     20838      1299  TIP3      H1             44.8697723075       23.2114682209       80.6842511041  TIP3      1163            0.0000000000
     20839      1299  TIP3      H2             44.8807626731       24.7089696160       80.7309233876  TIP3      1163            0.0000000000
     20840      1300  TIP3      OH2            44.8453490493       22.1144036446       78.9404181873  TIP3      1164            0.0000000000
     20841      1300  TIP3      H1             45.5632390670       22.4757931760       78.3916271364  TIP3      1164            0.0000000000
     20842      1300  TIP3      H2             44.0507002405       22.4365064262       78.4722781736  TIP3      1164            0.0000000000
     20843      1301  TIP3      OH2            46.1912614952       27.9265625691       79.5730148913  TIP3      1165            0.0000000000
     20844      1301  TIP3      H1             46.9850510323       27.9591102024       79.0196319615  TIP3      1165            0.0000000000
     20845      1301  TIP3      H2             45.5796116738       28.4694848830       79.0278748828  TIP3      1165            0.0000000000
     20846      1302  TIP3      OH2            50.4593102175       25.2774588181       84.1167004018  TIP3      1166            0.0000000000
     20847      1302  TIP3      H1             50.6146091489       24.4577116289       84.6373858989  TIP3      1166            0.0000000000
     20848      1302  TIP3      H2             51.3479610785       25.6464489985       84.1193360131  TIP3      1166            0.0000000000
     20849      1303  TIP3      OH2            52.0291103465       28.5184564517       82.8059576253  TIP3      1167            0.0000000000
     20850      1303  TIP3      H1             52.0021723976       29.1053093406       82.0255307623  TIP3      1167            0.0000000000
     20851      1303  TIP3      H2             52.8328291967       28.0243030764       82.5883770663  TIP3      1167            0.0000000000
     20852      1304  TIP3      OH2            43.0717005305       24.7670597493       83.6399954056  TIP3      1168            0.0000000000
     20853      1304  TIP3      H1             42.2064803262       24.3217774646       83.4911655424  TIP3      1168            0.0000000000
     20854      1304  TIP3      H2             43.3028942948       25.0105703273       82.7289587311  TIP3      1168            0.0000000000
     20855      1305  TIP3      OH2            45.5465828612       19.4456807896       79.1225326317  TIP3      1169            0.0000000000
     20856      1305  TIP3      H1             45.2615578976       20.3832888763       79.0796700464  TIP3      1169            0.0000000000
     20857      1305  TIP3      H2             44.7385881334       18.9674062780       78.8719151099  TIP3      1169            0.0000000000
     20858      1306  TIP3      OH2            46.8643010261       23.6183048374       83.2192559515  TIP3      1170            0.0000000000
     20859      1306  TIP3      H1             46.1781531339       23.2943195639       83.8357448424  TIP3      1170            0.0000000000
     20860      1306  TIP3      H2             46.3177670997       23.6880083527       82.4034152206  TIP3      1170            0.0000000000
     20861      1307  TIP3      OH2            49.3314796519       22.9304053905       82.2104470098  TIP3      1171            0.0000000000
     20862      1307  TIP3      H1             48.4112817838       23.0922512752       82.4991695239  TIP3      1171            0.0000000000
     20863      1307  TIP3      H2             49.6531476774       22.4386584041       82.9992754330  TIP3      1171            0.0000000000
     20864      1308  TIP3      OH2            50.2320579431       21.2643297025       84.1124421220  TIP3      1172            0.0000000000
     20865      1308  TIP3      H1             50.4697007013       20.3147750185       84.0357014411  TIP3      1172            0.0000000000
     20866      1308  TIP3      H2             50.8232833110       21.6048256960       84.8083957851  TIP3      1172            0.0000000000
     20867      1309  TIP3      OH2            40.9064759693       22.9101429049       83.2004681136  TIP3      1173            0.0000000000
     20868      1309  TIP3      H1             40.7735640580       22.1719129004       82.5696883791  TIP3      1173            0.0000000000
     20869      1309  TIP3      H2             40.6911253456       22.5142502179       84.0685017731  TIP3      1173            0.0000000000
     20870      1310  TIP3      OH2            45.3722378704       19.0254636427       82.0085755020  TIP3      1174            0.0000000000
     20871      1310  TIP3      H1             46.0835007211       18.3588788123       81.9965682898  TIP3      1174            0.0000000000
     20872      1310  TIP3      H2             45.2411883810       19.1192132632       81.0502559646  TIP3      1174            0.0000000000
     20873      1311  TIP3      OH2            45.4950046176       20.1091123491       84.5539770201  TIP3      1175            0.0000000000
     20874      1311  TIP3      H1             45.5040760942       19.7591788948       83.6332119424  TIP3      1175            0.0000000000
     20875      1311  TIP3      H2             45.0816349363       20.9825729871       84.4037992085  TIP3      1175            0.0000000000
     20876      1312  TIP3      OH2            37.8942303033       37.2542112709       71.8940298081  TIP3      1176            0.0000000000
     20877      1312  TIP3      H1             37.2384247538       36.7522154960       71.3647292613  TIP3      1176            0.0000000000
     20878      1312  TIP3      H2             38.1155146943       36.5602104010       72.5620956705  TIP3      1176            0.0000000000
     20879      1313  TIP3      OH2            38.5504678510       35.5054625075       73.8896890447  TIP3      1177            0.0000000000
     20880      1313  TIP3      H1             37.9423419998       35.1287274031       74.5531250929  TIP3      1177            0.0000000000
     20881      1313  TIP3      H2             39.3265064611       35.6638841158       74.4679525366  TIP3      1177            0.0000000000
     20882      1314  TIP3      OH2            56.5074055989       36.0075441640       76.2330408720  TIP3      1178            0.0000000000
     20883      1314  TIP3      H1             56.5161943294       35.7911684675       77.1789129453  TIP3      1178            0.0000000000
     20884      1314  TIP3      H2             56.8320379770       36.9202582433       76.2753818155  TIP3      1178            0.0000000000
     20885      1315  TIP3      OH2            55.6994389513       35.6463066938       79.1834017703  TIP3      1179            0.0000000000
     20886      1315  TIP3      H1             55.3977991106       34.7453231458       78.9301234605  TIP3      1179            0.0000000000
     20887      1315  TIP3      H2             56.1521675726       35.4581783644       80.0302517485  TIP3      1179            0.0000000000
     20888      1316  TIP3      OH2            54.3829268218       31.4603084175       84.5260087201  TIP3      1180            0.0000000000
     20889      1316  TIP3      H1             53.5240984684       31.5963231806       84.9827136436  TIP3      1180            0.0000000000
     20890      1316  TIP3      H2             54.7784309317       32.3603910441       84.5625907845  TIP3      1180            0.0000000000
     20891      1317  TIP3      OH2            55.5436788270       29.5234545107       70.2000638591  TIP3      1181            0.0000000000
     20892      1317  TIP3      H1             56.4763699821       29.6812258200       70.3662717355  TIP3      1181            0.0000000000
     20893      1317  TIP3      H2             55.4425007359       28.6408290320       70.6187088647  TIP3      1181            0.0000000000
     20894      1318  TIP3      OH2            55.8824901888       27.4412129335       71.8396844279  TIP3      1182            0.0000000000
     20895      1318  TIP3      H1             55.1607593975       26.8534184787       72.1558043631  TIP3      1182            0.0000000000
     20896      1318  TIP3      H2             56.4189815413       27.5653314581       72.6526647617  TIP3      1182            0.0000000000
     20897      1319  TIP3      OH2            55.7452774441       30.4432077750       76.0581532491  TIP3      1183            0.0000000000
     20898      1319  TIP3      H1             56.4463384091       29.7918047324       75.8600798387  TIP3      1183            0.0000000000
     20899      1319  TIP3      H2             56.1778729821       31.2704033872       75.7824955025  TIP3      1183            0.0000000000
     20900      1320  TIP3      OH2            54.3128450894       33.3398563176       78.8286523699  TIP3      1184            0.0000000000
     20901      1320  TIP3      H1             53.7364445093       33.9748484802       79.2835349899  TIP3      1184            0.0000000000
     20902      1320  TIP3      H2             53.7927612704       33.1306443744       78.0102232311  TIP3      1184            0.0000000000
     20903      1321  TIP3      OH2            53.8387798483       25.8916366241       72.4512541283  TIP3      1185            0.0000000000
     20904      1321  TIP3      H1             53.4114069910       25.0569188711       72.1648541697  TIP3      1185            0.0000000000
     20905      1321  TIP3      H2             53.3806196502       26.0784552679       73.3005147312  TIP3      1185            0.0000000000
     20906      1322  TIP3      OH2            38.5087389465       28.7674658950       76.3451608065  TIP3      1186            0.0000000000
     20907      1322  TIP3      H1             38.4262623870       28.3486007980       75.4589659076  TIP3      1186            0.0000000000
     20908      1322  TIP3      H2             39.4291971555       28.4526901456       76.5453203965  TIP3      1186            0.0000000000
     20909      1323  TIP3      OH2            55.1675780590       28.1808774907       81.8629914071  TIP3      1187            0.0000000000
     20910      1323  TIP3      H1             55.4460296568       27.2624161688       82.0841802778  TIP3      1187            0.0000000000
     20911      1323  TIP3      H2             55.6824010744       28.3634227351       81.0545111536  TIP3      1187            0.0000000000
     20912      1324  TIP3      OH2            56.0399267427       25.8648692550       83.1289220480  TIP3      1188            0.0000000000
     20913      1324  TIP3      H1             55.2282837733       25.4206040475       82.7777120938  TIP3      1188            0.0000000000
     20914      1324  TIP3      H2             56.7053770531       25.2021585455       82.8427605614  TIP3      1188            0.0000000000
     20915      1325  TIP3      OH2            53.6024780629       22.7824714865       66.6471732657  TIP3      1189            0.0000000000
     20916      1325  TIP3      H1             54.5456441745       22.5919041777       66.7504235088  TIP3      1189            0.0000000000
     20917      1325  TIP3      H2             53.4066368381       22.1768228346       65.9064590311  TIP3      1189            0.0000000000
     20918      1326  TIP3      OH2            53.0125132441       23.9871212147       70.7620502064  TIP3      1190            0.0000000000
     20919      1326  TIP3      H1             53.3514584971       23.0577575493       70.8557052996  TIP3      1190            0.0000000000
     20920      1326  TIP3      H2             53.7210835453       24.3532189243       70.2115261359  TIP3      1190            0.0000000000
     20921      1327  TIP3      OH2            54.5235004574       24.9289772243       75.7671780379  TIP3      1191            0.0000000000
     20922      1327  TIP3      H1             55.4900717210       24.9214277216       75.9607540124  TIP3      1191            0.0000000000
     20923      1327  TIP3      H2             54.1722664718       24.9055854852       76.6845087220  TIP3      1191            0.0000000000
     20924      1328  TIP3      OH2            54.0454983263       25.2571799166       78.3907401455  TIP3      1192            0.0000000000
     20925      1328  TIP3      H1             53.2921894501       25.6078732317       78.9179629403  TIP3      1192            0.0000000000
     20926      1328  TIP3      H2             54.5931991844       26.0485972141       78.2207258362  TIP3      1192            0.0000000000
     20927      1329  TIP3      OH2            38.7018364368       24.0456611182       82.0878293687  TIP3      1193            0.0000000000
     20928      1329  TIP3      H1             39.5934063653       23.7816950144       82.3901623952  TIP3      1193            0.0000000000
     20929      1329  TIP3      H2             38.2071380920       23.2068356414       82.1950485676  TIP3      1193            0.0000000000
     20930      1330  TIP3      OH2            56.3235940063       19.9435356543       83.8750765166  TIP3      1194            0.0000000000
     20931      1330  TIP3      H1             56.7202031655       19.1495234184       83.4644231454  TIP3      1194            0.0000000000
     20932      1330  TIP3      H2             56.3443633334       20.5806867205       83.1258971967  TIP3      1194            0.0000000000
     20933      1331  TIP3      OH2            53.8793500215       21.5555574211       70.8467749398  TIP3      1195            0.0000000000
     20934      1331  TIP3      H1             54.3134582353       21.0473106787       71.5699082109  TIP3      1195            0.0000000000
     20935      1331  TIP3      H2             53.4803653603       20.8487563754       70.3142400934  TIP3      1195            0.0000000000
     20936      1332  TIP3      OH2            39.5678711395       21.8998550175       75.8903556608  TIP3      1196            0.0000000000
     20937      1332  TIP3      H1             40.0262117210       21.0297847231       75.7630231007  TIP3      1196            0.0000000000
     20938      1332  TIP3      H2             40.3189872541       22.5222291343       75.8373813171  TIP3      1196            0.0000000000
     20939      1333  TIP3      OH2            38.0402891306       25.1797791513       76.2333553795  TIP3      1197            0.0000000000
     20940      1333  TIP3      H1             38.5526224328       24.6120299529       75.6425458522  TIP3      1197            0.0000000000
     20941      1333  TIP3      H2             38.7216585631       25.6811923416       76.6964266704  TIP3      1197            0.0000000000
     20942      1334  TIP3      OH2            55.7612162132       21.5749295622       81.8003626782  TIP3      1198            0.0000000000
     20943      1334  TIP3      H1             54.8540467830       21.9377940827       81.6195974965  TIP3      1198            0.0000000000
     20944      1334  TIP3      H2             55.6653927854       20.7685837379       81.2592645643  TIP3      1198            0.0000000000
     20945      1335  TIP3      OH2            56.4610082653       21.2174176851       66.8989112875  TIP3      1199            0.0000000000
     20946      1335  TIP3      H1             56.1633481789       20.4890937196       66.3284514799  TIP3      1199            0.0000000000
     20947      1335  TIP3      H2             57.1841751069       21.6012612319       66.3777803470  TIP3      1199            0.0000000000
     20948      1336  TIP3      OH2            38.7842163457       20.7788511577       69.8106629146  TIP3      1200            0.0000000000
     20949      1336  TIP3      H1             38.6220559126       21.1922302851       70.6718029836  TIP3      1200            0.0000000000
     20950      1336  TIP3      H2             38.7334560901       21.5711583622       69.2199389940  TIP3      1200            0.0000000000
     20951      1337  TIP3      OH2            53.6455968159       36.0496564887       72.5678649140  TIP3      1201            0.0000000000
     20952      1337  TIP3      H1             54.2852392066       35.9328672639       71.8412721750  TIP3      1201            0.0000000000
     20953      1337  TIP3      H2             54.0646776636       36.6782986440       73.1796784900  TIP3      1201            0.0000000000
     20954      1338  TIP3      OH2            38.3046429923       19.9843731219       78.6456689767  TIP3      1202            0.0000000000
     20955      1338  TIP3      H1             37.6509765047       19.5907910460       79.2557354310  TIP3      1202            0.0000000000
     20956      1338  TIP3      H2             37.7805900826       20.6360801227       78.1606835321  TIP3      1202            0.0000000000
     20957      1339  TIP3      OH2            40.6395801312       32.9821338295       82.5852796629  TIP3      1203            0.0000000000
     20958      1339  TIP3      H1             39.6998644548       33.1322693698       82.4158470011  TIP3      1203            0.0000000000
     20959      1339  TIP3      H2             40.6645208719       32.1148765518       83.0061301138  TIP3      1203            0.0000000000
     20960      1340  TIP3      OH2            43.2941316755       34.6795790688       79.2076341293  TIP3      1204            0.0000000000
     20961      1340  TIP3      H1             43.2760511816       35.6094813783       78.8856194320  TIP3      1204            0.0000000000
     20962      1340  TIP3      H2             44.2267276240       34.4710721897       78.9955032261  TIP3      1204            0.0000000000
     20963      1341  TIP3      OH2            47.4137120380       35.5768205100       81.6681048688  TIP3      1205            0.0000000000
     20964      1341  TIP3      H1             47.5330616304       35.4252188500       82.6252103396  TIP3      1205            0.0000000000
     20965      1341  TIP3      H2             48.2224568533       36.1168375866       81.4939604714  TIP3      1205            0.0000000000
     20966      1342  TIP3      OH2            49.4343325581       37.3577382521       81.3851986367  TIP3      1206            0.0000000000
     20967      1342  TIP3      H1             50.2708641235       36.9114687747       81.1712010796  TIP3      1206            0.0000000000
     20968      1342  TIP3      H2             49.7155119961       37.9137944763       82.1354111688  TIP3      1206            0.0000000000
     20969      1343  TIP3      OH2            54.5925703180       19.3767578133       80.3653903170  TIP3      1207            0.0000000000
     20970      1343  TIP3      H1             53.8980261045       19.9463775662       79.9884209766  TIP3      1207            0.0000000000
     20971      1343  TIP3      H2             54.4810753501       18.5536680806       79.8677454780  TIP3      1207            0.0000000000
     20972      1344  TIP3      OH2            40.8790040455       37.5965944504       79.0076942080  TIP3      1208            0.0000000000
     20973      1344  TIP3      H1             40.2096611771       38.2840238627       78.8257824870  TIP3      1208            0.0000000000
     20974      1344  TIP3      H2             40.6854856456       37.3429315449       79.9214155706  TIP3      1208            0.0000000000
     20975      1345  TIP3      OH2            43.2287362275       37.0544827421       78.0294777453  TIP3      1209            0.0000000000
     20976      1345  TIP3      H1             42.3734846927       37.3450371257       78.4359182771  TIP3      1209            0.0000000000
     20977      1345  TIP3      H2             43.2546850925       37.6509876086       77.2594694209  TIP3      1209            0.0000000000
     20978      1346  TIP3      OH2            47.8127041855       36.6851871125       77.3419875202  TIP3      1210            0.0000000000
     20979      1346  TIP3      H1             47.0662405716       37.1201568837       76.8879643992  TIP3      1210            0.0000000000
     20980      1346  TIP3      H2             48.1003374523       37.4404675623       77.9074302012  TIP3      1210            0.0000000000
     20981      1347  TIP3      OH2            49.9367827960       35.4216611143       78.6604610522  TIP3      1211            0.0000000000
     20982      1347  TIP3      H1             49.2186584373       35.7177276636       78.0544655734  TIP3      1211            0.0000000000
     20983      1347  TIP3      H2             50.5945746325       36.1105094648       78.4193776856  TIP3      1211            0.0000000000
     20984      1348  TIP3      OH2            51.9966369381       37.2830219991       78.1913744677  TIP3      1212            0.0000000000
     20985      1348  TIP3      H1             51.9898120742       38.2489058121       78.0510828811  TIP3      1212            0.0000000000
     20986      1348  TIP3      H2             52.5235386030       36.9950452780       77.4174326403  TIP3      1212            0.0000000000
     20987      1349  TIP3      OH2            40.3329175127       36.0092865819       76.1357155647  TIP3      1213            0.0000000000
     20988      1349  TIP3      H1             39.9765873116       35.6252976819       76.9653413411  TIP3      1213            0.0000000000
     20989      1349  TIP3      H2             41.2640858604       35.6940098217       76.1254973316  TIP3      1213            0.0000000000
     20990      1350  TIP3      OH2            42.6074102970       35.0257857045       74.8644288557  TIP3      1214            0.0000000000
     20991      1350  TIP3      H1             42.3933005821       34.0883548757       75.0745910829  TIP3      1214            0.0000000000
     20992      1350  TIP3      H2             43.5363314375       35.0372692945       75.1914907552  TIP3      1214            0.0000000000
     20993      1351  TIP3      OH2            44.9630680183       34.7800196944       76.1095481059  TIP3      1215            0.0000000000
     20994      1351  TIP3      H1             45.2507465838       33.8896097204       75.8572336755  TIP3      1215            0.0000000000
     20995      1351  TIP3      H2             45.3065516984       34.8199555485       77.0206332248  TIP3      1215            0.0000000000
     20996      1352  TIP3      OH2            49.0543435517       21.0358888880       74.8037622229  TIP3      1216            0.0000000000
     20997      1352  TIP3      H1             48.3485052633       21.0103243929       75.4663726581  TIP3      1216            0.0000000000
     20998      1352  TIP3      H2             48.5625660601       21.3201845086       74.0245334720  TIP3      1216            0.0000000000
     20999      1353  TIP3      OH2            52.9699362661       19.2503364562       74.6083869673  TIP3      1217            0.0000000000
     21000      1353  TIP3      H1             53.6677073709       19.6053059922       74.0125654862  TIP3      1217            0.0000000000
     21001      1353  TIP3      H2             52.1610785560       19.5267073846       74.1304207867  TIP3      1217            0.0000000000
     21002      1354  TIP3      OH2            55.0058371259       20.0255200076       72.9239073615  TIP3      1218            0.0000000000
     21003      1354  TIP3      H1             55.5477124842       19.3812509921       72.4036986964  TIP3      1218            0.0000000000
     21004      1354  TIP3      H2             55.7204955003       20.6468373963       73.2116365234  TIP3      1218            0.0000000000
     21005      1355  TIP3      OH2            40.4452076525       19.3458833919       72.5299326147  TIP3      1219            0.0000000000
     21006      1355  TIP3      H1             39.5421677869       19.1236898096       72.2177119420  TIP3      1219            0.0000000000
     21007      1355  TIP3      H2             40.8741687618       18.4620888197       72.4433607120  TIP3      1219            0.0000000000
     21008      1356  TIP3      OH2            39.4709311345       18.8790012034       67.8696557813  TIP3      1220            0.0000000000
     21009      1356  TIP3      H1             40.1542061760       19.3210579728       67.3448005044  TIP3      1220            0.0000000000
     21010      1356  TIP3      H2             39.2152113420       19.5530245090       68.5411815203  TIP3      1220            0.0000000000
     21011      1357  TIP3      OH2            45.1387421817       19.1562004393       72.5447246213  TIP3      1221            0.0000000000
     21012      1357  TIP3      H1             46.0043595852       18.8421412508       72.2456193914  TIP3      1221            0.0000000000
     21013      1357  TIP3      H2             45.3502685582       19.5242291654       73.4255054916  TIP3      1221            0.0000000000
     21014      1358  TIP3      OH2            50.7812705533       19.4314414936       73.0853706404  TIP3      1222            0.0000000000
     21015      1358  TIP3      H1             50.0813614986       19.9402584980       72.6647512757  TIP3      1222            0.0000000000
     21016      1358  TIP3      H2             50.2625929201       18.7873182369       73.6077795043  TIP3      1222            0.0000000000
     21017      1359  TIP3      OH2            51.6320855114       19.4781037142       69.3426800895  TIP3      1223            0.0000000000
     21018      1359  TIP3      H1             50.9428910314       20.1026481529       69.6602108867  TIP3      1223            0.0000000000
     21019      1359  TIP3      H2             51.3347260898       18.6015397903       69.6752376502  TIP3      1223            0.0000000000
     21020      1360  TIP3      OH2            39.5398902040       35.4954448294       69.6340077167  TIP3      1224            0.0000000000
     21021      1360  TIP3      H1             38.6715199363       35.7087400113       69.2493987154  TIP3      1224            0.0000000000
     21022      1360  TIP3      H2             39.9773268254       36.3654616265       69.5790152069  TIP3      1224            0.0000000000
     21023      1361  TIP3      OH2            45.7429137402       20.2866262883       69.8565034185  TIP3      1225            0.0000000000
     21024      1361  TIP3      H1             46.6091138176       20.4498710588       70.2946928607  TIP3      1225            0.0000000000
     21025      1361  TIP3      H2             45.7509555378       20.9617139472       69.1576110467  TIP3      1225            0.0000000000
     21026      1362  TIP3      OH2            48.0940907565       36.7156663963       67.3873898825  TIP3      1226            0.0000000000
     21027      1362  TIP3      H1             49.0677759683       36.8145690779       67.4225852127  TIP3      1226            0.0000000000
     21028      1362  TIP3      H2             48.0144640696       36.0231804209       66.6948423420  TIP3      1226            0.0000000000
     21029      1363  TIP3      OH2            55.0138238331       35.3360566901       70.2892593273  TIP3      1227            0.0000000000
     21030      1363  TIP3      H1             54.5127824182       34.5366823121       70.0492151829  TIP3      1227            0.0000000000
     21031      1363  TIP3      H2             54.6163283153       36.0290921262       69.7110158711  TIP3      1227            0.0000000000
     21032      1364  TIP3      OH2            40.3021717258       20.2523705187       82.0241660840  TIP3      1228            0.0000000000
     21033      1364  TIP3      H1             39.8606546431       19.3850318785       82.0501090317  TIP3      1228            0.0000000000
     21034      1364  TIP3      H2             41.0544401926       20.1278732447       82.6453985884  TIP3      1228            0.0000000000
     21035      1365  TIP3      OH2            42.3353167387       19.5875938487       83.7973150735  TIP3      1229            0.0000000000
     21036      1365  TIP3      H1             43.1594693049       19.2379074942       83.3953074514  TIP3      1229            0.0000000000
     21037      1365  TIP3      H2             41.9897514493       18.7602775930       84.1825345892  TIP3      1229            0.0000000000
     21038      1366  TIP3      OH2            41.1769426807       36.6136028325       66.7843796319  TIP3      1230            0.0000000000
     21039      1366  TIP3      H1             40.3748534671       36.3196479040       67.2398959015  TIP3      1230            0.0000000000
     21040      1366  TIP3      H2             40.8298662994       36.5855207743       65.8624089974  TIP3      1230            0.0000000000
     21041      1367  TIP3      OH2            50.9199479701       18.6795950405       83.8203380677  TIP3      1231            0.0000000000
     21042      1367  TIP3      H1             51.0860141071       18.0960195774       84.5858337498  TIP3      1231            0.0000000000
     21043      1367  TIP3      H2             51.8320450067       18.6980153835       83.4513820507  TIP3      1231            0.0000000000
     21044      1368  TIP3      OH2            54.2149242034       34.8638189490       82.1543648102  TIP3      1232            0.0000000000
     21045      1368  TIP3      H1             53.4685361481       34.8842800540       81.5165710852  TIP3      1232            0.0000000000
     21046      1368  TIP3      H2             54.1320993308       35.7315071797       82.5707208970  TIP3      1232            0.0000000000
     21047      1369  TIP3      OH2            59.8923706509       27.3934394980       77.2734649545  TIP3      1233            0.0000000000
     21048      1369  TIP3      H1             59.6306716613       26.5069818301       77.5824011762  TIP3      1233            0.0000000000
     21049      1369  TIP3      H2             60.4348051661       27.6756703977       78.0358806873  TIP3      1233            0.0000000000
     21050      1370  TIP3      OH2            61.2585454979       32.0773021895       75.2201280811  TIP3      1234            0.0000000000
     21051      1370  TIP3      H1             61.0887906300       31.1115283752       75.2596375532  TIP3      1234            0.0000000000
     21052      1370  TIP3      H2             62.2386346727       32.0569973947       75.1805269130  TIP3      1234            0.0000000000
     21053      1371  TIP3      OH2            57.8273601231       25.3320160545       71.0220407388  TIP3      1235            0.0000000000
     21054      1371  TIP3      H1             57.5482430760       25.6264281155       70.1415998181  TIP3      1235            0.0000000000
     21055      1371  TIP3      H2             57.0568765146       25.5347186890       71.5784866992  TIP3      1235            0.0000000000
     21056      1372  TIP3      OH2            57.7882278917       27.3962092679       73.7064623892  TIP3      1236            0.0000000000
     21057      1372  TIP3      H1             58.2454554545       26.5504701842       73.9062022064  TIP3      1236            0.0000000000
     21058      1372  TIP3      H2             58.4745229948       27.8784539155       73.2159857076  TIP3      1236            0.0000000000
     21059      1373  TIP3      OH2            -0.2943348995       30.8623628857       76.4916167633  TIP3      1237            0.0000000000
     21060      1373  TIP3      H1              0.3356664121       30.1448323253       76.6610632282  TIP3      1237            0.0000000000
     21061      1373  TIP3      H2              0.2702933058       31.6617418446       76.4482161816  TIP3      1237            0.0000000000
     21062      1374  TIP3      OH2            62.2519005816       22.8334473527       73.4974032967  TIP3      1238            0.0000000000
     21063      1374  TIP3      H1             62.4754783186       23.5663895161       72.8926339354  TIP3      1238            0.0000000000
     21064      1374  TIP3      H2             61.7056231544       22.2798768670       72.8861123491  TIP3      1238            0.0000000000
     21065      1375  TIP3      OH2            59.1190525282       25.2719942107       74.7205384357  TIP3      1239            0.0000000000
     21066      1375  TIP3      H1             59.7115535366       24.6876286166       75.2334012752  TIP3      1239            0.0000000000
     21067      1375  TIP3      H2             59.3670258352       24.9687188602       73.8192013896  TIP3      1239            0.0000000000
     21068      1376  TIP3      OH2            63.5949770090       26.6662591607       73.7070235099  TIP3      1240            0.0000000000
     21069      1376  TIP3      H1             64.4355563500       26.2849060204       74.0370601617  TIP3      1240            0.0000000000
     21070      1376  TIP3      H2             63.3191160236       25.9898180388       73.0636331428  TIP3      1240            0.0000000000
     21071      1377  TIP3      OH2            61.0250060666       21.6476031827       77.9020137449  TIP3      1241            0.0000000000
     21072      1377  TIP3      H1             60.5606112852       22.1403839889       77.2022735124  TIP3      1241            0.0000000000
     21073      1377  TIP3      H2             60.4314864857       21.8019756422       78.6727236341  TIP3      1241            0.0000000000
     21074      1378  TIP3      OH2            64.1212351869       29.2702596323       77.9978566790  TIP3      1242            0.0000000000
     21075      1378  TIP3      H1             63.4921434367       29.9058441232       78.3832875025  TIP3      1242            0.0000000000
     21076      1378  TIP3      H2             64.6043199819       29.8680708204       77.3976694441  TIP3      1242            0.0000000000
     21077      1379  TIP3      OH2            60.8317910325       23.4827750676       75.7128053961  TIP3      1243            0.0000000000
     21078      1379  TIP3      H1             61.5633773604       23.7768468863       76.2958448039  TIP3      1243            0.0000000000
     21079      1379  TIP3      H2             61.3602719612       23.1326139152       74.9527124277  TIP3      1243            0.0000000000
     21080      1380  TIP3      OH2            62.1303402493       31.4612662109       78.4638042143  TIP3      1244            0.0000000000
     21081      1380  TIP3      H1             61.9984617700       32.0104796198       77.6793981971  TIP3      1244            0.0000000000
     21082      1380  TIP3      H2             61.2086063953       31.4775722383       78.8269428607  TIP3      1244            0.0000000000
     21083      1381  TIP3      OH2            58.0957398442       31.0829755825       69.2905733449  TIP3      1245            0.0000000000
     21084      1381  TIP3      H1             57.1570708269       30.9179268814       69.1615343037  TIP3      1245            0.0000000000
     21085      1381  TIP3      H2             58.1117019554       31.6508628917       70.0931844148  TIP3      1245            0.0000000000
     21086      1382  TIP3      OH2            64.6054834781       19.3081129035       75.4300477690  TIP3      1246            0.0000000000
     21087      1382  TIP3      H1             64.5159908755       18.5254923283       75.9930701446  TIP3      1246            0.0000000000
     21088      1382  TIP3      H2             63.7431956878       19.7628018028       75.6226742002  TIP3      1246            0.0000000000
     21089      1383  TIP3      OH2            62.7890374828       28.6767110755       72.1786447287  TIP3      1247            0.0000000000
     21090      1383  TIP3      H1             62.4216626614       28.1060278481       71.4838391973  TIP3      1247            0.0000000000
     21091      1383  TIP3      H2             63.0923483876       28.0015051504       72.8291896566  TIP3      1247            0.0000000000
     21092      1384  TIP3      OH2            63.9715326021       32.0283909970       75.1576930180  TIP3      1248            0.0000000000
     21093      1384  TIP3      H1             64.2739670167       31.7726859064       74.2741000000  TIP3      1248            0.0000000000
     21094      1384  TIP3      H2             64.6278068427       31.5491441263       75.7235995739  TIP3      1248            0.0000000000
     21095      1385  TIP3      OH2            63.0057475857       27.1775422532       76.6606053898  TIP3      1249            0.0000000000
     21096      1385  TIP3      H1             63.0369233036       27.3903670596       75.7124158975  TIP3      1249            0.0000000000
     21097      1385  TIP3      H2             63.3262215311       28.0067455978       77.0761998215  TIP3      1249            0.0000000000
     21098      1386  TIP3      OH2            63.4695621101       31.5091972680       80.7857794131  TIP3      1250            0.0000000000
     21099      1386  TIP3      H1             63.0404385260       32.2628874275       81.2541800223  TIP3      1250            0.0000000000
     21100      1386  TIP3      H2             62.9826227992       31.5209377236       79.9280541097  TIP3      1250            0.0000000000
     21101      1387  TIP3      OH2            60.8477397094       27.6914942552       79.9893111665  TIP3      1251            0.0000000000
     21102      1387  TIP3      H1             61.1005974038       28.5170920131       80.4319740809  TIP3      1251            0.0000000000
     21103      1387  TIP3      H2             60.0585353452       27.5007100839       80.5142201833  TIP3      1251            0.0000000000
     21104      1388  TIP3      OH2            61.8756018572       33.3595827953       81.9159901170  TIP3      1252            0.0000000000
     21105      1388  TIP3      H1             61.8963112851       33.8598382999       81.0744715168  TIP3      1252            0.0000000000
     21106      1388  TIP3      H2             60.9005181485       33.2406836006       82.0495522027  TIP3      1252            0.0000000000
     21107      1389  TIP3      OH2            61.4550986368       27.3899706628       69.6158907714  TIP3      1253            0.0000000000
     21108      1389  TIP3      H1             61.1448164870       28.3269111953       69.5320825075  TIP3      1253            0.0000000000
     21109      1389  TIP3      H2             60.9360349091       26.9613145461       68.9114766925  TIP3      1253            0.0000000000
     21110      1390  TIP3      OH2            57.6588125306       30.0144694950       79.1033242490  TIP3      1254            0.0000000000
     21111      1390  TIP3      H1             57.5840000265       29.7346513713       78.1766237096  TIP3      1254            0.0000000000
     21112      1390  TIP3      H2             57.6291112916       29.1473557090       79.5612921053  TIP3      1254            0.0000000000
     21113      1391  TIP3      OH2            57.7131359329       32.8113441709       75.8970378462  TIP3      1255            0.0000000000
     21114      1391  TIP3      H1             58.4537111628       32.1928535193       75.9527388507  TIP3      1255            0.0000000000
     21115      1391  TIP3      H2             58.0292354568       33.5789283516       76.3920815818  TIP3      1255            0.0000000000
     21116      1392  TIP3      OH2            60.6529476086       35.9684198819       72.2075236716  TIP3      1256            0.0000000000
     21117      1392  TIP3      H1             61.0313957177       35.4801004533       72.9844980567  TIP3      1256            0.0000000000
     21118      1392  TIP3      H2             59.8651594126       35.4366589903       72.0335667062  TIP3      1256            0.0000000000
     21119      1393  TIP3      OH2            59.7475875636       31.6063993876       79.5963968720  TIP3      1257            0.0000000000
     21120      1393  TIP3      H1             59.8390780433       31.3935288497       80.5436255424  TIP3      1257            0.0000000000
     21121      1393  TIP3      H2             58.9518835150       31.0718688482       79.3693623853  TIP3      1257            0.0000000000
     21122      1394  TIP3      OH2            62.2723441764       20.2866340334       75.9634875507  TIP3      1258            0.0000000000
     21123      1394  TIP3      H1             61.3924221936       20.0637938688       75.5840270601  TIP3      1258            0.0000000000
     21124      1394  TIP3      H2             61.9988094900       20.7353633390       76.7868060567  TIP3      1258            0.0000000000
     21125      1395  TIP3      OH2            62.7136092354       24.6026443784       77.5129129998  TIP3      1259            0.0000000000
     21126      1395  TIP3      H1             61.9461002119       24.7329566906       78.0950250414  TIP3      1259            0.0000000000
     21127      1395  TIP3      H2             62.7681539733       25.4921088080       77.0858109925  TIP3      1259            0.0000000000
     21128      1396  TIP3      OH2            62.6529917067       24.8513265233       71.6183311342  TIP3      1260            0.0000000000
     21129      1396  TIP3      H1             61.6977836075       25.0154200906       71.7592225630  TIP3      1260            0.0000000000
     21130      1396  TIP3      H2             62.6568792614       24.3101344337       70.8086337858  TIP3      1260            0.0000000000
     21131      1397  TIP3      OH2            60.0147260299       24.7880006587       78.7651768235  TIP3      1261            0.0000000000
     21132      1397  TIP3      H1             60.3337252207       25.1168607574       79.6173199474  TIP3      1261            0.0000000000
     21133      1397  TIP3      H2             59.6528346546       23.9166321268       79.0150382535  TIP3      1261            0.0000000000
     21134      1398  TIP3      OH2            56.8580922432       21.9282746108       73.2747002333  TIP3      1262            0.0000000000
     21135      1398  TIP3      H1             57.6896532883       21.7879333552       73.7520875093  TIP3      1262            0.0000000000
     21136      1398  TIP3      H2             57.0991804345       22.0026308790       72.3236799973  TIP3      1262            0.0000000000
     21137      1399  TIP3      OH2            64.8461846460       22.5288644309       73.6696576127  TIP3      1263            0.0000000000
     21138      1399  TIP3      H1             63.8749219726       22.4585690059       73.8212441175  TIP3      1263            0.0000000000
     21139      1399  TIP3      H2             65.1214688494       23.1887266498       74.3379543221  TIP3      1263            0.0000000000
     21140      1400  TIP3      OH2            59.9291511271       24.4319686927       72.3146314180  TIP3      1264            0.0000000000
     21141      1400  TIP3      H1             59.2078593743       24.6214313767       71.6648597081  TIP3      1264            0.0000000000
     21142      1400  TIP3      H2             60.1447100928       23.5013288024       72.0959502039  TIP3      1264            0.0000000000
     21143      1401  TIP3      OH2            63.8873610881       24.4935120060       69.2221911723  TIP3      1265            0.0000000000
     21144      1401  TIP3      H1             64.3870061717       24.8907247086       69.9524612913  TIP3      1265            0.0000000000
     21145      1401  TIP3      H2             63.2341038164       25.1850088137       69.0042238187  TIP3      1265            0.0000000000
     21146      1402  TIP3      OH2            59.8507240697       30.0375232014       82.1423464839  TIP3      1266            0.0000000000
     21147      1402  TIP3      H1             60.5250393389       30.1832108040       82.8417884338  TIP3      1266            0.0000000000
     21148      1402  TIP3      H2             59.0372457289       29.9725704642       82.6932173647  TIP3      1266            0.0000000000
     21149      1403  TIP3      OH2            -0.3690087141       25.0952605921       74.5298159620  TIP3      1267            0.0000000000
     21150      1403  TIP3      H1              0.5296633824       25.1018919475       74.1560272441  TIP3      1267            0.0000000000
     21151      1403  TIP3      H2             -0.1740641289       25.3390175229       75.4580853962  TIP3      1267            0.0000000000
     21152      1404  TIP3      OH2            60.5865064726       21.8525084775       71.7569044884  TIP3      1268            0.0000000000
     21153      1404  TIP3      H1             60.2847961805       21.0327092470       72.2282475523  TIP3      1268            0.0000000000
     21154      1404  TIP3      H2             60.4808969658       21.5494267608       70.8420799088  TIP3      1268            0.0000000000
     21155      1405  TIP3      OH2            65.1316781456       23.3840346467       78.4066858926  TIP3      1269            0.0000000000
     21156      1405  TIP3      H1             64.3699977516       23.9686518028       78.1968043849  TIP3      1269            0.0000000000
     21157      1405  TIP3      H2             65.8113647140       23.8073029079       77.8594905474  TIP3      1269            0.0000000000
     21158      1406  TIP3      OH2            64.7360822471       30.4307825722       69.0774431389  TIP3      1270            0.0000000000
     21159      1406  TIP3      H1             64.0311951531       29.7983849761       69.2207962928  TIP3      1270            0.0000000000
     21160      1406  TIP3      H2             64.7833245133       30.8892971592       69.9245110777  TIP3      1270            0.0000000000
     21161      1407  TIP3      OH2            61.2612018951       29.3343224142       75.3554260005  TIP3      1271            0.0000000000
     21162      1407  TIP3      H1             61.5892597942       29.0228063897       74.4939066682  TIP3      1271            0.0000000000
     21163      1407  TIP3      H2             61.0420020348       28.5139850512       75.8384888736  TIP3      1271            0.0000000000
     21164      1408  TIP3      OH2            57.3932680590       27.6348903084       80.2664559280  TIP3      1272            0.0000000000
     21165      1408  TIP3      H1             57.7109662376       26.9636604557       80.8941269562  TIP3      1272            0.0000000000
     21166      1408  TIP3      H2             57.1272668503       27.1295341360       79.4718153208  TIP3      1272            0.0000000000
     21167      1409  TIP3      OH2            64.7486601790       27.4704139354       82.0998621626  TIP3      1273            0.0000000000
     21168      1409  TIP3      H1             64.1428758894       27.0599338284       81.4469498670  TIP3      1273            0.0000000000
     21169      1409  TIP3      H2             65.4318686269       26.7850891863       82.2095385201  TIP3      1273            0.0000000000
     21170      1410  TIP3      OH2            62.9916756869       33.0238234684       71.7479113217  TIP3      1274            0.0000000000
     21171      1410  TIP3      H1             63.4890061390       33.8239535038       71.4971013731  TIP3      1274            0.0000000000
     21172      1410  TIP3      H2             62.0741143906       33.3277666592       71.7701874171  TIP3      1274            0.0000000000
     21173      1411  TIP3      OH2            64.6266369703       30.8635063805       72.2114429475  TIP3      1275            0.0000000000
     21174      1411  TIP3      H1             63.9737358939       31.5936542142       72.0377509289  TIP3      1275            0.0000000000
     21175      1411  TIP3      H2             64.0336069641       30.0984061072       72.3854933832  TIP3      1275            0.0000000000
     21176      1412  TIP3      OH2            65.0023099009       34.7683355712       78.8728065315  TIP3      1276            0.0000000000
     21177      1412  TIP3      H1             65.1621824119       35.7244193745       78.8322837375  TIP3      1276            0.0000000000
     21178      1412  TIP3      H2             65.7113237859       34.4443935199       79.4445001996  TIP3      1276            0.0000000000
     21179      1413  TIP3      OH2            63.1322371284       35.9546394704       71.0424206659  TIP3      1277            0.0000000000
     21180      1413  TIP3      H1             62.2876595003       36.1029552552       71.5180612269  TIP3      1277            0.0000000000
     21181      1413  TIP3      H2             63.7050165389       36.5769201413       71.5327996172  TIP3      1277            0.0000000000
     21182      1414  TIP3      OH2            59.4667404504       22.3467054312       79.9963437452  TIP3      1278            0.0000000000
     21183      1414  TIP3      H1             58.7499491845       22.7134928044       80.5482897111  TIP3      1278            0.0000000000
     21184      1414  TIP3      H2             59.6624864680       21.5221770599       80.4812485546  TIP3      1278            0.0000000000
     21185      1415  TIP3      OH2            59.2030268461       34.4037477297       78.0777500452  TIP3      1279            0.0000000000
     21186      1415  TIP3      H1             59.5781509432       33.5306687035       77.9400150265  TIP3      1279            0.0000000000
     21187      1415  TIP3      H2             59.6690569452       34.6235265112       78.8977726526  TIP3      1279            0.0000000000
     21188      1416  TIP3      OH2            60.5757121506       29.9380264540       69.2099175845  TIP3      1280            0.0000000000
     21189      1416  TIP3      H1             59.6439353778       30.2076038970       69.3590204876  TIP3      1280            0.0000000000
     21190      1416  TIP3      H2             60.8924475791       30.6975300819       68.7204336957  TIP3      1280            0.0000000000
     21191      1417  TIP3      OH2            65.7957286300       23.7422456338       71.5654833853  TIP3      1281            0.0000000000
     21192      1417  TIP3      H1             66.6135954809       23.4115132945       71.9889080118  TIP3      1281            0.0000000000
     21193      1417  TIP3      H2             65.1289915552       23.5137718256       72.2550989993  TIP3      1281            0.0000000000
     21194      1418  TIP3      OH2            63.2494593379       35.2232002146       68.4266327240  TIP3      1282            0.0000000000
     21195      1418  TIP3      H1             63.6952114365       36.0665797105       68.2268728447  TIP3      1282            0.0000000000
     21196      1418  TIP3      H2             62.9966008101       35.3512968068       69.3584187007  TIP3      1282            0.0000000000
     21197      1419  TIP3      OH2            62.2757958431       21.5926996614       68.3299448018  TIP3      1283            0.0000000000
     21198      1419  TIP3      H1             62.1052944086       22.4669173064       68.6884159485  TIP3      1283            0.0000000000
     21199      1419  TIP3      H2             63.1048027318       21.3386740311       68.7762983542  TIP3      1283            0.0000000000
     21200      1420  TIP3      OH2            59.8732326111       19.4912921947       75.2279221516  TIP3      1284            0.0000000000
     21201      1420  TIP3      H1             59.6606431677       19.4941375112       74.2670330064  TIP3      1284            0.0000000000
     21202      1420  TIP3      H2             59.5663828421       18.5932624514       75.4921788029  TIP3      1284            0.0000000000
     21203      1421  TIP3      OH2            58.5284448482       32.8051824799       71.2952568575  TIP3      1285            0.0000000000
     21204      1421  TIP3      H1             58.1690047366       33.0818143043       72.1485604223  TIP3      1285            0.0000000000
     21205      1421  TIP3      H2             58.4793432660       33.6211898263       70.7599768067  TIP3      1285            0.0000000000
     21206      1422  TIP3      OH2            57.7992339649       36.5608833487       82.3628575340  TIP3      1286            0.0000000000
     21207      1422  TIP3      H1             58.5673707934       36.3448004648       82.9305018435  TIP3      1286            0.0000000000
     21208      1422  TIP3      H2             57.3429728205       35.7002477921       82.3348703770  TIP3      1286            0.0000000000
     21209      1423  TIP3      OH2            61.9315592319       35.4443807611       83.7029140689  TIP3      1287            0.0000000000
     21210      1423  TIP3      H1             62.8731545263       35.5179986940       83.9154204320  TIP3      1287            0.0000000000
     21211      1423  TIP3      H2             61.9297198257       34.7152602798       83.0402030669  TIP3      1287            0.0000000000
     21212      1424  TIP3      OH2            57.5853894617       30.1895362451       83.5988300464  TIP3      1288            0.0000000000
     21213      1424  TIP3      H1             57.1297277838       29.3391472450       83.7572816090  TIP3      1288            0.0000000000
     21214      1424  TIP3      H2             57.1644515631       30.4740155112       82.7505701784  TIP3      1288            0.0000000000
     21215      1425  TIP3      OH2            64.5641772146       30.4026461241       82.9669435928  TIP3      1289            0.0000000000
     21216      1425  TIP3      H1             64.2492016924       30.7562622136       82.0916366733  TIP3      1289            0.0000000000
     21217      1425  TIP3      H2             64.5938889074       29.4478055321       82.7692848929  TIP3      1289            0.0000000000
     21218      1426  TIP3      OH2            59.3185880574       27.0406828383       83.1011975850  TIP3      1290            0.0000000000
     21219      1426  TIP3      H1             59.6160252267       26.2503954023       83.5853636177  TIP3      1290            0.0000000000
     21220      1426  TIP3      H2             59.3667150004       27.7129724618       83.8076915310  TIP3      1290            0.0000000000
     21221      1427  TIP3      OH2            63.1971492476       26.2263790060       80.1091760929  TIP3      1291            0.0000000000
     21222      1427  TIP3      H1             62.4091179018       26.7736188393       79.8980639840  TIP3      1291            0.0000000000
     21223      1427  TIP3      H2             63.8655719341       26.5361229469       79.4601100819  TIP3      1291            0.0000000000
     21224      1428  TIP3      OH2            63.2057989004       23.6762750215       80.9522159595  TIP3      1292            0.0000000000
     21225      1428  TIP3      H1             63.4831962019       23.0217616121       80.2840808024  TIP3      1292            0.0000000000
     21226      1428  TIP3      H2             63.2229034883       24.5435378052       80.4809238250  TIP3      1292            0.0000000000
     21227      1429  TIP3      OH2            63.4906055934       21.2610633201       78.8438159276  TIP3      1293            0.0000000000
     21228      1429  TIP3      H1             63.9871328939       22.0224010522       78.4596488736  TIP3      1293            0.0000000000
     21229      1429  TIP3      H2             62.5559843575       21.4570261999       78.6003354909  TIP3      1293            0.0000000000
     21230      1430  TIP3      OH2            65.6367227751       26.8593875952       78.9205451200  TIP3      1294            0.0000000000
     21231      1430  TIP3      H1             66.0609630422       26.2751833776       78.2506006733  TIP3      1294            0.0000000000
     21232      1430  TIP3      H2             65.4554410967       27.6565576887       78.3939430934  TIP3      1294            0.0000000000
     21233      1431  TIP3      OH2            61.8800970297       24.5060658682       83.2912928591  TIP3      1295            0.0000000000
     21234      1431  TIP3      H1             60.9510668865       24.2466881846       83.1284395587  TIP3      1295            0.0000000000
     21235      1431  TIP3      H2             62.3163207682       24.2477711792       82.4563375146  TIP3      1295            0.0000000000
     21236      1432  TIP3      OH2            64.0817430358       18.6873808522       78.8617736974  TIP3      1296            0.0000000000
     21237      1432  TIP3      H1             63.9075603259       19.6531973072       78.9843941124  TIP3      1296            0.0000000000
     21238      1432  TIP3      H2             63.2111405818       18.4275558346       78.4969900536  TIP3      1296            0.0000000000
     21239      1433  TIP3      OH2            64.8343929063       24.3128984193       83.1179573817  TIP3      1297            0.0000000000
     21240      1433  TIP3      H1             64.6072010388       23.5844423743       83.7233864505  TIP3      1297            0.0000000000
     21241      1433  TIP3      H2             64.1881210262       24.1583283806       82.4044183521  TIP3      1297            0.0000000000
     21242      1434  TIP3      OH2            59.6804222712       22.7578706901       83.2303717121  TIP3      1298            0.0000000000
     21243      1434  TIP3      H1             60.0792323792       21.8972397192       83.0340069010  TIP3      1298            0.0000000000
     21244      1434  TIP3      H2             59.6331582702       22.7234150697       84.2165262190  TIP3      1298            0.0000000000
     21245      1435  TIP3      OH2            64.3252741911       19.2040129930       81.8920321565  TIP3      1299            0.0000000000
     21246      1435  TIP3      H1             65.2727497601       19.4191704265       81.8792799102  TIP3      1299            0.0000000000
     21247      1435  TIP3      H2             64.1552658889       18.9508904884       80.9655674200  TIP3      1299            0.0000000000
     21248      1436  TIP3      OH2            64.7100572123       19.8466483575       84.4941316877  TIP3      1300            0.0000000000
     21249      1436  TIP3      H1             64.3881372616       19.3966582952       83.6862242082  TIP3      1300            0.0000000000
     21250      1436  TIP3      H2             64.3027262239       20.7234673005       84.3751086774  TIP3      1300            0.0000000000
     21251      1437  TIP3      OH2            65.0310736778       37.3639613185       68.1406335315  TIP3      1301            0.0000000000
     21252      1437  TIP3      H1             65.2537288239       36.7579021803       67.4002208328  TIP3      1301            0.0000000000
     21253      1437  TIP3      H2             64.8743262098       38.1592399838       67.5973014018  TIP3      1301            0.0000000000
     21254      1438  TIP3      OH2            56.7431436977       37.0231893295       71.7362815338  TIP3      1302            0.0000000000
     21255      1438  TIP3      H1             56.1570652220       36.4388642928       71.2311964826  TIP3      1302            0.0000000000
     21256      1438  TIP3      H2             56.9731963849       36.4212003158       72.4792832168  TIP3      1302            0.0000000000
     21257      1439  TIP3      OH2            57.7335582414       35.2720728997       73.5703438379  TIP3      1303            0.0000000000
     21258      1439  TIP3      H1             57.0803886496       34.9491892478       74.2273148498  TIP3      1303            0.0000000000
     21259      1439  TIP3      H2             58.4249464173       35.6060291244       74.1896834032  TIP3      1303            0.0000000000
     21260      1440  TIP3      OH2            57.8563427233       28.6918754942       75.9960529175  TIP3      1304            0.0000000000
     21261      1440  TIP3      H1             57.7081828234       28.1364299108       75.1965465445  TIP3      1304            0.0000000000
     21262      1440  TIP3      H2             58.7613091679       28.3829326230       76.2309268347  TIP3      1304            0.0000000000
     21263      1441  TIP3      OH2            57.3562013744       23.6379895871       82.2868846014  TIP3      1305            0.0000000000
     21264      1441  TIP3      H1             58.2108155624       23.3198010040       82.6533614432  TIP3      1305            0.0000000000
     21265      1441  TIP3      H2             56.7970142433       22.8312004646       82.3696104351  TIP3      1305            0.0000000000
     21266      1442  TIP3      OH2            58.5692173615       21.7763936050       75.6305293883  TIP3      1306            0.0000000000
     21267      1442  TIP3      H1             59.0508155961       20.9199636896       75.5256580880  TIP3      1306            0.0000000000
     21268      1442  TIP3      H2             59.2947385433       22.4167272515       75.5418842789  TIP3      1306            0.0000000000
     21269      1443  TIP3      OH2            57.1167835905       24.6938856704       76.3847841175  TIP3      1307            0.0000000000
     21270      1443  TIP3      H1             57.3508397284       24.0124380125       75.7331440811  TIP3      1307            0.0000000000
     21271      1443  TIP3      H2             57.8157021817       25.3504246507       76.2091045601  TIP3      1307            0.0000000000
     21272      1444  TIP3      OH2            56.7289288540       21.6361938559       70.5888326107  TIP3      1308            0.0000000000
     21273      1444  TIP3      H1             55.8113740762       21.8696006861       70.3599992434  TIP3      1308            0.0000000000
     21274      1444  TIP3      H2             57.0685736579       21.3990916955       69.7093484896  TIP3      1308            0.0000000000
     21275      1445  TIP3      OH2            57.2500662253       19.6017521788       78.5433695211  TIP3      1309            0.0000000000
     21276      1445  TIP3      H1             56.5111143977       19.2345719353       79.0505009557  TIP3      1309            0.0000000000
     21277      1445  TIP3      H2             56.8909378377       20.4225456055       78.1728499549  TIP3      1309            0.0000000000
     21278      1446  TIP3      OH2            59.2086464257       32.9872614266       82.2794368088  TIP3      1310            0.0000000000
     21279      1446  TIP3      H1             58.3337814489       33.4053455783       82.1672018886  TIP3      1310            0.0000000000
     21280      1446  TIP3      H2             58.9475257719       32.1386955641       82.6494235820  TIP3      1310            0.0000000000
     21281      1447  TIP3      OH2            62.2947446755       34.6022040199       79.3313889923  TIP3      1311            0.0000000000
     21282      1447  TIP3      H1             62.2039263681       35.4551511163       78.8587486244  TIP3      1311            0.0000000000
     21283      1447  TIP3      H2             63.2598974004       34.4658749840       79.2172384970  TIP3      1311            0.0000000000
     21284      1448  TIP3      OH2            59.5950349260       37.7757360427       78.6936126340  TIP3      1312            0.0000000000
     21285      1448  TIP3      H1             58.8136931134       38.3464553241       78.5346337566  TIP3      1312            0.0000000000
     21286      1448  TIP3      H2             59.4533074884       37.5524785391       79.6237464254  TIP3      1312            0.0000000000
     21287      1449  TIP3      OH2            61.9726085666       36.9314648706       77.9807538506  TIP3      1313            0.0000000000
     21288      1449  TIP3      H1             61.0353764727       37.0737064429       78.2589535104  TIP3      1313            0.0000000000
     21289      1449  TIP3      H2             62.0205976776       37.5628318878       77.2332320440  TIP3      1313            0.0000000000
     21290      1450  TIP3      OH2            59.4107337468       35.9033014365       75.6058454247  TIP3      1314            0.0000000000
     21291      1450  TIP3      H1             59.0544587366       35.5057431705       76.4252516397  TIP3      1314            0.0000000000
     21292      1450  TIP3      H2             60.2907170363       35.4872741151       75.5371791848  TIP3      1314            0.0000000000
     21293      1451  TIP3      OH2            61.6380672347       34.7005763803       74.3142374802  TIP3      1315            0.0000000000
     21294      1451  TIP3      H1             61.4925745708       33.7512357228       74.5176786185  TIP3      1315            0.0000000000
     21295      1451  TIP3      H2             62.3303906834       34.8770440286       74.9975803601  TIP3      1315            0.0000000000
     21296      1452  TIP3      OH2            63.4834332381       34.8432237517       76.1967776339  TIP3      1316            0.0000000000
     21297      1452  TIP3      H1             64.0104405547       34.0885149671       75.8724573310  TIP3      1316            0.0000000000
     21298      1452  TIP3      H2             63.7794033567       34.9100002758       77.1150586833  TIP3      1316            0.0000000000
     21299      1453  TIP3      OH2            59.3733420644       19.6805608737       72.5185540568  TIP3      1317            0.0000000000
     21300      1453  TIP3      H1             58.8015638850       19.7712508356       71.7292986767  TIP3      1317            0.0000000000
     21301      1453  TIP3      H2             59.7330717879       18.7785795500       72.3596141815  TIP3      1317            0.0000000000
     21302      1454  TIP3      OH2            58.7970132726       19.7750723280       68.9783407938  TIP3      1318            0.0000000000
     21303      1454  TIP3      H1             58.6990641350       20.4784748939       68.3053527213  TIP3      1318            0.0000000000
     21304      1454  TIP3      H2             58.1175866907       19.1454953461       68.6867460838  TIP3      1318            0.0000000000
     21305      1455  TIP3      OH2            63.9880202082       19.3403044089       72.8668368137  TIP3      1319            0.0000000000
     21306      1455  TIP3      H1             64.7683186402       18.8612405941       72.5363906504  TIP3      1319            0.0000000000
     21307      1455  TIP3      H2             64.2081526958       19.4234270216       73.8257644482  TIP3      1319            0.0000000000
     21308      1456  TIP3      OH2            57.8362342774       35.2720174295       69.4149687964  TIP3      1320            0.0000000000
     21309      1456  TIP3      H1             56.9636422656       35.6184560478       69.6562654840  TIP3      1320            0.0000000000
     21310      1456  TIP3      H2             58.2478282332       36.0074731883       68.9314066131  TIP3      1320            0.0000000000
     21311      1457  TIP3      OH2            59.3850579008       21.8416187087       66.9793658769  TIP3      1321            0.0000000000
     21312      1457  TIP3      H1             60.1923522805       21.4540514808       66.6134478558  TIP3      1321            0.0000000000
     21313      1457  TIP3      H2             59.6009853305       22.7827616805       66.9645769553  TIP3      1321            0.0000000000
     21314      1458  TIP3      OH2            64.6673642817       21.7257588622       69.8228088897  TIP3      1322            0.0000000000
     21315      1458  TIP3      H1             65.5462979864       21.5422716540       69.4467996879  TIP3      1322            0.0000000000
     21316      1458  TIP3      H2             64.6867523836       22.7008120043       69.8641675099  TIP3      1322            0.0000000000
     21317      1459  TIP3      OH2            59.0829993073       19.8501376092       82.0459430609  TIP3      1323            0.0000000000
     21318      1459  TIP3      H1             58.6114382235       18.9981266341       82.2055692639  TIP3      1323            0.0000000000
     21319      1459  TIP3      H2             59.7981783831       19.8296387331       82.7174234473  TIP3      1323            0.0000000000
     21320      1460  TIP3      OH2            61.1844921066       19.5051344665       83.7573948055  TIP3      1324            0.0000000000
     21321      1460  TIP3      H1             61.9991161379       19.1924002588       83.3348347644  TIP3      1324            0.0000000000
     21322      1460  TIP3      H2             60.9101950350       18.6898393034       84.2242525025  TIP3      1324            0.0000000000
     21323      1461  TIP3      OH2            59.9617921653       36.4179965628       66.7275904834  TIP3      1325            0.0000000000
     21324      1461  TIP3      H1             60.5794320622       36.5395868208       67.4626989837  TIP3      1325            0.0000000000
     21325      1461  TIP3      H2             60.5115502267       35.9415942196       66.0702585195  TIP3      1325            0.0000000000
     21326      1462  TIP3      OH2            12.3993563354       47.4359787142       72.1779465397  TIP3      1326            0.0000000000
     21327      1462  TIP3      H1             12.2988449242       48.3441347206       72.5194287893  TIP3      1326            0.0000000000
     21328      1462  TIP3      H2             11.8672880155       47.4998486293       71.3500715338  TIP3      1326            0.0000000000
     21329      1463  TIP3      OH2            11.1609249795       46.5655417548       75.7757835125  TIP3      1327            0.0000000000
     21330      1463  TIP3      H1             11.3110347050       46.0538714995       76.5977280408  TIP3      1327            0.0000000000
     21331      1463  TIP3      H2             10.4839113286       46.0709829997       75.2896207920  TIP3      1327            0.0000000000
     21332      1464  TIP3      OH2             3.5213215476       46.6307562328       77.3102541451  TIP3      1328            0.0000000000
     21333      1464  TIP3      H1              3.3106698441       45.8635202132       77.8697615544  TIP3      1328            0.0000000000
     21334      1464  TIP3      H2              3.9166940120       47.2261919599       77.9719431973  TIP3      1328            0.0000000000
     21335      1465  TIP3      OH2            14.5714705739       49.3731507887       74.2916440411  TIP3      1329            0.0000000000
     21336      1465  TIP3      H1             14.4340045692       48.7554913099       75.0312008099  TIP3      1329            0.0000000000
     21337      1465  TIP3      H2             14.6699730923       50.2211879164       74.7418948760  TIP3      1329            0.0000000000
     21338      1466  TIP3      OH2             3.5096363473       50.7754316009       75.3951775116  TIP3      1330            0.0000000000
     21339      1466  TIP3      H1              3.6453106282       49.8384506012       75.1165884778  TIP3      1330            0.0000000000
     21340      1466  TIP3      H2              4.3987602594       50.9377039370       75.7177102445  TIP3      1330            0.0000000000
     21341      1467  TIP3      OH2             0.4287819693       44.8612031840       71.4593247268  TIP3      1331            0.0000000000
     21342      1467  TIP3      H1              0.6683179403       45.7881898230       71.6331711079  TIP3      1331            0.0000000000
     21343      1467  TIP3      H2             -0.5058908697       44.8465216546       71.7157697943  TIP3      1331            0.0000000000
     21344      1468  TIP3      OH2             1.3224166283       46.5948616376       73.3746161439  TIP3      1332            0.0000000000
     21345      1468  TIP3      H1              1.6263442098       45.7046680433       73.6437493368  TIP3      1332            0.0000000000
     21346      1468  TIP3      H2              2.1409621995       46.9580079195       73.0285750160  TIP3      1332            0.0000000000
     21347      1469  TIP3      OH2            11.3647040176       54.4129792069       73.7280659684  TIP3      1333            0.0000000000
     21348      1469  TIP3      H1             12.1907356943       54.0160167889       73.3609252430  TIP3      1333            0.0000000000
     21349      1469  TIP3      H2             11.3022872892       53.8800153105       74.5390008975  TIP3      1333            0.0000000000
     21350      1470  TIP3      OH2             9.1528183734       49.2673586970       76.8604920328  TIP3      1334            0.0000000000
     21351      1470  TIP3      H1              9.3985839138       48.5615340471       76.2429234834  TIP3      1334            0.0000000000
     21352      1470  TIP3      H2             10.0214111150       49.7182100187       76.9422971169  TIP3      1334            0.0000000000
     21353      1471  TIP3      OH2            18.0866558490       40.7511851196       75.9656048195  TIP3      1335            0.0000000000
     21354      1471  TIP3      H1             18.1672405612       41.1121389278       76.8686331376  TIP3      1335            0.0000000000
     21355      1471  TIP3      H2             19.0312546504       40.6394659901       75.7407624384  TIP3      1335            0.0000000000
     21356      1472  TIP3      OH2            12.7968915265       43.5248076334       76.5348201134  TIP3      1336            0.0000000000
     21357      1472  TIP3      H1             12.8435751304       42.5688897284       76.7482997081  TIP3      1336            0.0000000000
     21358      1472  TIP3      H2             12.4445304675       43.4834050951       75.6260011160  TIP3      1336            0.0000000000
     21359      1473  TIP3      OH2             5.0505787221       41.8032992696       73.5967567275  TIP3      1337            0.0000000000
     21360      1473  TIP3      H1              5.5208472002       42.4458781571       73.0248514856  TIP3      1337            0.0000000000
     21361      1473  TIP3      H2              5.1963556319       40.9928778247       73.0482011168  TIP3      1337            0.0000000000
     21362      1474  TIP3      OH2            13.3000890372       41.3727515730       71.8835509750  TIP3      1338            0.0000000000
     21363      1474  TIP3      H1             13.7817695927       41.2535581861       72.7286637710  TIP3      1338            0.0000000000
     21364      1474  TIP3      H2             13.4354435056       42.3120058052       71.6848164428  TIP3      1338            0.0000000000
     21365      1475  TIP3      OH2             2.2039421905       44.2690142677       74.3060072120  TIP3      1339            0.0000000000
     21366      1475  TIP3      H1              2.7253879827       43.7841895884       74.9686041197  TIP3      1339            0.0000000000
     21367      1475  TIP3      H2              2.5780588571       43.9129129084       73.4799650047  TIP3      1339            0.0000000000
     21368      1476  TIP3      OH2             6.8956118466       45.4676735108       73.5342451530  TIP3      1340            0.0000000000
     21369      1476  TIP3      H1              7.7292759120       45.1000380717       73.8999273461  TIP3      1340            0.0000000000
     21370      1476  TIP3      H2              6.6366491176       44.7227549663       72.9589997420  TIP3      1340            0.0000000000
     21371      1477  TIP3      OH2            18.1498660375       41.8207108764       78.5956626407  TIP3      1341            0.0000000000
     21372      1477  TIP3      H1             17.7294128270       42.6776900179       78.3468776521  TIP3      1341            0.0000000000
     21373      1477  TIP3      H2             18.0659418887       41.8551360209       79.5586086989  TIP3      1341            0.0000000000
     21374      1478  TIP3      OH2             4.7103297551       40.7935952194       78.0220029066  TIP3      1342            0.0000000000
     21375      1478  TIP3      H1              4.3616468355       41.3966919651       77.3468260242  TIP3      1342            0.0000000000
     21376      1478  TIP3      H2              3.9807194704       40.8296334267       78.6791757312  TIP3      1342            0.0000000000
     21377      1479  TIP3      OH2            11.4557840704       50.2468094079       71.4412467119  TIP3      1343            0.0000000000
     21378      1479  TIP3      H1             10.8933981780       50.1113043726       70.6626277487  TIP3      1343            0.0000000000
     21379      1479  TIP3      H2             11.3389413944       51.2125667773       71.5485497379  TIP3      1343            0.0000000000
     21380      1480  TIP3      OH2             6.7683740803       48.3088879004       77.5922048613  TIP3      1344            0.0000000000
     21381      1480  TIP3      H1              6.2156283947       49.0852476010       77.8292254243  TIP3      1344            0.0000000000
     21382      1480  TIP3      H2              7.5978168110       48.7556323924       77.3067020384  TIP3      1344            0.0000000000
     21383      1481  TIP3      OH2            15.4712679964       41.7553033346       74.4511435495  TIP3      1345            0.0000000000
     21384      1481  TIP3      H1             16.2440704403       41.1824392230       74.3269130964  TIP3      1345            0.0000000000
     21385      1481  TIP3      H2             15.8949869687       42.4910096708       74.9523241575  TIP3      1345            0.0000000000
     21386      1482  TIP3      OH2             4.1484453475       42.9044938497       75.8117710103  TIP3      1346            0.0000000000
     21387      1482  TIP3      H1              4.8131106458       43.5700828779       76.0971572809  TIP3      1346            0.0000000000
     21388      1482  TIP3      H2              4.5749714297       42.5844349965       74.9716673363  TIP3      1346            0.0000000000
     21389      1483  TIP3      OH2             5.4664831538       50.5289647499       78.4739295466  TIP3      1347            0.0000000000
     21390      1483  TIP3      H1              5.3462706402       51.4734295515       78.2806980410  TIP3      1347            0.0000000000
     21391      1483  TIP3      H2              4.6997243301       50.3240409714       79.0561686404  TIP3      1347            0.0000000000
     21392      1484  TIP3      OH2             1.5220273296       50.2994201767       69.1950960727  TIP3      1348            0.0000000000
     21393      1484  TIP3      H1              0.7065118533       49.7425970764       69.2997086966  TIP3      1348            0.0000000000
     21394      1484  TIP3      H2              1.8651882136       50.3128525271       70.1032439151  TIP3      1348            0.0000000000
     21395      1485  TIP3      OH2            15.0575892656       51.9337768715       76.7613155211  TIP3      1349            0.0000000000
     21396      1485  TIP3      H1             14.0814256829       51.8833751250       76.8124016482  TIP3      1349            0.0000000000
     21397      1485  TIP3      H2             15.1351570194       52.7551845321       76.2412092555  TIP3      1349            0.0000000000
     21398      1486  TIP3      OH2            15.2063333860       40.5675021206       77.5042572415  TIP3      1350            0.0000000000
     21399      1486  TIP3      H1             14.4904790848       40.9039531962       76.9337647556  TIP3      1350            0.0000000000
     21400      1486  TIP3      H2             15.9312044860       40.5023209561       76.8617400899  TIP3      1350            0.0000000000
     21401      1487  TIP3      OH2             8.1234790619       38.4535659596       75.1969354565  TIP3      1351            0.0000000000
     21402      1487  TIP3      H1              8.0294321436       37.4968174377       75.0941085327  TIP3      1351            0.0000000000
     21403      1487  TIP3      H2              7.2311518614       38.7492261505       75.5190907149  TIP3      1351            0.0000000000
     21404      1488  TIP3      OH2            13.7172156788       53.2338754753       72.9860552892  TIP3      1352            0.0000000000
     21405      1488  TIP3      H1             13.9223484040       52.4229758847       72.4704739790  TIP3      1352            0.0000000000
     21406      1488  TIP3      H2             14.4935958460       53.8061617672       72.7541233702  TIP3      1352            0.0000000000
     21407      1489  TIP3      OH2            14.6755748479       51.0070469644       71.5884288535  TIP3      1353            0.0000000000
     21408      1489  TIP3      H1             14.6277427477       50.4033515056       70.8157157788  TIP3      1353            0.0000000000
     21409      1489  TIP3      H2             14.5816245846       50.3745355973       72.3205651245  TIP3      1353            0.0000000000
     21410      1490  TIP3      OH2            16.1111898909       49.8495365848       80.0714305080  TIP3      1354            0.0000000000
     21411      1490  TIP3      H1             16.2139355923       49.1455522769       79.3892155428  TIP3      1354            0.0000000000
     21412      1490  TIP3      H2             16.3653821881       50.6387930233       79.5419267258  TIP3      1354            0.0000000000
     21413      1491  TIP3      OH2            11.0496085346       47.1860356276       69.8092423666  TIP3      1355            0.0000000000
     21414      1491  TIP3      H1             10.3870357674       47.9124626221       69.7508600685  TIP3      1355            0.0000000000
     21415      1491  TIP3      H2             11.5479201332       47.3655945384       69.0006052149  TIP3      1355            0.0000000000
     21416      1492  TIP3      OH2            18.3297077938       46.2933824488       78.2527153710  TIP3      1356            0.0000000000
     21417      1492  TIP3      H1             17.6220020384       46.9694775678       78.3458464416  TIP3      1356            0.0000000000
     21418      1492  TIP3      H2             18.8432142795       46.6614707171       77.5023477385  TIP3      1356            0.0000000000
     21419      1493  TIP3      OH2            14.6874979377       46.9120671004       70.9027973141  TIP3      1357            0.0000000000
     21420      1493  TIP3      H1             13.8937387148       47.1135634506       71.4451007369  TIP3      1357            0.0000000000
     21421      1493  TIP3      H2             15.2216518445       46.4165274624       71.5506970099  TIP3      1357            0.0000000000
     21422      1494  TIP3      OH2            14.6325413183       45.6605212569       79.4275545124  TIP3      1358            0.0000000000
     21423      1494  TIP3      H1             14.7221725781       46.6277894585       79.4836705702  TIP3      1358            0.0000000000
     21424      1494  TIP3      H2             13.6929054029       45.5689150799       79.1708118688  TIP3      1358            0.0000000000
     21425      1495  TIP3      OH2             5.7101393311       47.6642837636       72.4976349776  TIP3      1359            0.0000000000
     21426      1495  TIP3      H1              5.5724580336       47.4764407920       71.5430828151  TIP3      1359            0.0000000000
     21427      1495  TIP3      H2              6.2328476335       46.8801918298       72.7744302774  TIP3      1359            0.0000000000
     21428      1496  TIP3      OH2             6.7864376084       51.1727166049       75.1661940216  TIP3      1360            0.0000000000
     21429      1496  TIP3      H1              6.7144200295       51.1804408792       74.1812440076  TIP3      1360            0.0000000000
     21430      1496  TIP3      H2              7.5271679457       50.5665042364       75.3446092732  TIP3      1360            0.0000000000
     21431      1497  TIP3      OH2             6.1435351462       46.2715131615       75.9773166606  TIP3      1361            0.0000000000
     21432      1497  TIP3      H1              6.4339342107       46.3882730658       75.0550985650  TIP3      1361            0.0000000000
     21433      1497  TIP3      H2              6.2288801680       47.1601448820       76.3959761719  TIP3      1361            0.0000000000
     21434      1498  TIP3      OH2            12.4263371724       51.9048171963       77.0788275728  TIP3      1362            0.0000000000
     21435      1498  TIP3      H1             12.3231156914       52.4024301103       77.9088216592  TIP3      1362            0.0000000000
     21436      1498  TIP3      H2             12.2637100422       50.9915863366       77.3948456877  TIP3      1362            0.0000000000
     21437      1499  TIP3      OH2             7.1069004105       50.6154054689       80.8050852679  TIP3      1363            0.0000000000
     21438      1499  TIP3      H1              6.4431263295       51.1115328403       81.3377783641  TIP3      1363            0.0000000000
     21439      1499  TIP3      H2              6.6249386809       50.4892354174       79.9586833881  TIP3      1363            0.0000000000
     21440      1500  TIP3      OH2            13.4047075642       45.9060344281       68.7013812244  TIP3      1364            0.0000000000
     21441      1500  TIP3      H1             13.8283598416       46.3025727276       69.5017601555  TIP3      1364            0.0000000000
     21442      1500  TIP3      H2             13.8227938372       46.4292858965       67.9846718226  TIP3      1364            0.0000000000
     21443      1501  TIP3      OH2             4.2339525756       47.1577902240       79.9373605029  TIP3      1365            0.0000000000
     21444      1501  TIP3      H1              4.1665017068       47.9336090764       80.5118495552  TIP3      1365            0.0000000000
     21445      1501  TIP3      H2              3.3889922846       46.7014497680       80.1341092155  TIP3      1365            0.0000000000
     21446      1502  TIP3      OH2            10.6771342860       53.0041005235       71.4445164865  TIP3      1366            0.0000000000
     21447      1502  TIP3      H1             10.5922806693       53.2754967605       72.3711631083  TIP3      1366            0.0000000000
     21448      1502  TIP3      H2             10.4019245749       53.8351720023       71.0184782039  TIP3      1366            0.0000000000
     21449      1503  TIP3      OH2             5.3931914738       52.4366142082       81.9536880488  TIP3      1367            0.0000000000
     21450      1503  TIP3      H1              5.2875814337       52.8258079615       81.0618362876  TIP3      1367            0.0000000000
     21451      1503  TIP3      H2              4.4576984257       52.3423032609       82.2041009013  TIP3      1367            0.0000000000
     21452      1504  TIP3      OH2             5.0071402257       46.9292740705       69.8670242735  TIP3      1368            0.0000000000
     21453      1504  TIP3      H1              4.4130025055       47.4558125587       69.2846769991  TIP3      1368            0.0000000000
     21454      1504  TIP3      H2              4.6408892552       46.0419454303       69.7268643307  TIP3      1368            0.0000000000
     21455      1505  TIP3      OH2             1.2589098187       48.8811028692       79.8964286733  TIP3      1369            0.0000000000
     21456      1505  TIP3      H1              0.5517035478       48.8914882157       79.2326059192  TIP3      1369            0.0000000000
     21457      1505  TIP3      H2              1.5270910212       47.9391386887       79.8697589961  TIP3      1369            0.0000000000
     21458      1506  TIP3      OH2             0.8494423924       51.8117659840       75.9005969017  TIP3      1370            0.0000000000
     21459      1506  TIP3      H1              1.6182974220       51.3138042448       75.5623127359  TIP3      1370            0.0000000000
     21460      1506  TIP3      H2              1.3190493936       52.3218937760       76.5898898719  TIP3      1370            0.0000000000
     21461      1507  TIP3      OH2            18.8101408678       52.3605773865       81.6619067405  TIP3      1371            0.0000000000
     21462      1507  TIP3      H1             18.6836283040       51.4104156774       81.4767565989  TIP3      1371            0.0000000000
     21463      1507  TIP3      H2             18.0260492664       52.4980073061       82.2401143207  TIP3      1371            0.0000000000
     21464      1508  TIP3      OH2             9.6568998694       51.7789717953       80.3976369417  TIP3      1372            0.0000000000
     21465      1508  TIP3      H1              9.9543907666       52.3313736498       81.1418815607  TIP3      1372            0.0000000000
     21466      1508  TIP3      H2              8.7723189947       51.4871628768       80.6923621876  TIP3      1372            0.0000000000
     21467      1509  TIP3      OH2            10.2292738859       55.4826286769       70.1576451612  TIP3      1373            0.0000000000
     21468      1509  TIP3      H1             10.1580437010       55.8434532208       69.2463724113  TIP3      1373            0.0000000000
     21469      1509  TIP3      H2             10.3489101334       56.2973081034       70.6819190314  TIP3      1373            0.0000000000
     21470      1510  TIP3      OH2             4.1542126057       54.7350888013       72.2606835852  TIP3      1374            0.0000000000
     21471      1510  TIP3      H1              4.2896662025       54.4803967348       73.1973003743  TIP3      1374            0.0000000000
     21472      1510  TIP3      H2              3.5704905544       53.9978905508       71.9640136684  TIP3      1374            0.0000000000
     21473      1511  TIP3      OH2            12.8091544286       54.3995195368       67.5004316086  TIP3      1375            0.0000000000
     21474      1511  TIP3      H1             13.3358413452       53.5899097594       67.4977432835  TIP3      1375            0.0000000000
     21475      1511  TIP3      H2             12.7323756469       54.6144310088       68.4577909804  TIP3      1375            0.0000000000
     21476      1512  TIP3      OH2            13.0200938458       54.8205166501       70.1665513652  TIP3      1376            0.0000000000
     21477      1512  TIP3      H1             12.1570779019       54.8599575073       70.6139351292  TIP3      1376            0.0000000000
     21478      1512  TIP3      H2             13.4651466220       54.0987074540       70.6356584169  TIP3      1376            0.0000000000
     21479      1513  TIP3      OH2            15.7721095805       43.6317442760       82.5463796988  TIP3      1377            0.0000000000
     21480      1513  TIP3      H1             15.3099532698       43.9406774723       81.7472839419  TIP3      1377            0.0000000000
     21481      1513  TIP3      H2             15.7370110033       42.6607895126       82.4610749580  TIP3      1377            0.0000000000
     21482      1514  TIP3      OH2             3.4081237010       50.3912913354       80.2323578182  TIP3      1378            0.0000000000
     21483      1514  TIP3      H1              3.5310007651       49.9760983565       81.1139511577  TIP3      1378            0.0000000000
     21484      1514  TIP3      H2              2.5287376851       50.0132250821       79.9828092745  TIP3      1378            0.0000000000
     21485      1515  TIP3      OH2             5.8293649153       39.3209115258       76.1584246401  TIP3      1379            0.0000000000
     21486      1515  TIP3      H1              4.9500768325       39.3714949532       75.7143725962  TIP3      1379            0.0000000000
     21487      1515  TIP3      H2              5.6289368278       39.7500484970       77.0210443379  TIP3      1379            0.0000000000
     21488      1516  TIP3      OH2            10.5888506932       38.6833913962       79.3125538819  TIP3      1380            0.0000000000
     21489      1516  TIP3      H1             11.0343536635       38.1790278241       80.0265486691  TIP3      1380            0.0000000000
     21490      1516  TIP3      H2              9.6291035550       38.6222641194       79.5361734690  TIP3      1380            0.0000000000
     21491      1517  TIP3      OH2            13.1177497913       42.8134355260       80.6697242363  TIP3      1381            0.0000000000
     21492      1517  TIP3      H1             12.4233349126       42.4575592663       81.2708618572  TIP3      1381            0.0000000000
     21493      1517  TIP3      H2             12.6282332433       43.5694241926       80.3021009366  TIP3      1381            0.0000000000
     21494      1518  TIP3      OH2            14.7831722114       47.2003851728       66.7166626125  TIP3      1382            0.0000000000
     21495      1518  TIP3      H1             14.0430805985       47.8600097722       66.7845839028  TIP3      1382            0.0000000000
     21496      1518  TIP3      H2             14.8224170482       47.1390073269       65.7541799420  TIP3      1382            0.0000000000
     21497      1519  TIP3      OH2             6.3965107862       43.9039470397       77.1234695414  TIP3      1383            0.0000000000
     21498      1519  TIP3      H1              5.8107540312       44.0436949935       77.9041712717  TIP3      1383            0.0000000000
     21499      1519  TIP3      H2              6.3903491788       44.8129388580       76.7460929465  TIP3      1383            0.0000000000
     21500      1520  TIP3      OH2             5.9981483176       43.5797150984       71.8024210402  TIP3      1384            0.0000000000
     21501      1520  TIP3      H1              5.0596235428       43.7117024367       71.5739616700  TIP3      1384            0.0000000000
     21502      1520  TIP3      H2              6.3486559093       43.2427194292       70.9439232699  TIP3      1384            0.0000000000
     21503      1521  TIP3      OH2            11.6082955128       44.4715175420       70.1711243752  TIP3      1385            0.0000000000
     21504      1521  TIP3      H1             11.3448240527       45.4052659547       70.3266765363  TIP3      1385            0.0000000000
     21505      1521  TIP3      H2             12.2420088183       44.6390182257       69.4524415171  TIP3      1385            0.0000000000
     21506      1522  TIP3      OH2            10.4688535127       45.1791510243       81.8981001832  TIP3      1386            0.0000000000
     21507      1522  TIP3      H1             10.0466553462       44.3693481316       82.2222612948  TIP3      1386            0.0000000000
     21508      1522  TIP3      H2             11.2488596368       45.2081083362       82.4818756108  TIP3      1386            0.0000000000
     21509      1523  TIP3      OH2            11.7536882773       44.2239732381       73.9108152251  TIP3      1387            0.0000000000
     21510      1523  TIP3      H1             12.0734805544       45.0782608769       73.5672205011  TIP3      1387            0.0000000000
     21511      1523  TIP3      H2             11.8536422553       43.6786268406       73.1164224273  TIP3      1387            0.0000000000
     21512      1524  TIP3      OH2             2.8093201015       43.8986411935       78.5239360390  TIP3      1388            0.0000000000
     21513      1524  TIP3      H1              2.9116324345       44.2441924281       79.4307474875  TIP3      1388            0.0000000000
     21514      1524  TIP3      H2              2.9015957922       42.9405486723       78.6691712013  TIP3      1388            0.0000000000
     21515      1525  TIP3      OH2             1.5411598535       41.3314436875       72.8139403694  TIP3      1389            0.0000000000
     21516      1525  TIP3      H1              1.6627663048       41.2620967270       73.7799971185  TIP3      1389            0.0000000000
     21517      1525  TIP3      H2              1.8815373030       40.4704270654       72.5275241887  TIP3      1389            0.0000000000
     21518      1526  TIP3      OH2             1.0963185666       42.8270900230       68.7099840148  TIP3      1390            0.0000000000
     21519      1526  TIP3      H1              1.7920484066       43.1105519172       68.0970685884  TIP3      1390            0.0000000000
     21520      1526  TIP3      H2              0.3065718445       42.8181978974       68.1263747292  TIP3      1390            0.0000000000
     21521      1527  TIP3      OH2            12.0767399735       45.5864270096       78.2258572114  TIP3      1391            0.0000000000
     21522      1527  TIP3      H1             12.4016941712       44.7801237966       77.7615228418  TIP3      1391            0.0000000000
     21523      1527  TIP3      H2             11.3112158063       45.1961794977       78.7154666765  TIP3      1391            0.0000000000
     21524      1528  TIP3      OH2             8.7188232831       42.0963959260       72.3451032655  TIP3      1392            0.0000000000
     21525      1528  TIP3      H1              7.8197876292       41.7342468673       72.2559286572  TIP3      1392            0.0000000000
     21526      1528  TIP3      H2              9.0927815515       41.4442440579       72.9800353052  TIP3      1392            0.0000000000
     21527      1529  TIP3      OH2             2.9868808364       43.6920325763       71.5759931962  TIP3      1393            0.0000000000
     21528      1529  TIP3      H1              2.1690653350       44.1141782538       71.2476674982  TIP3      1393            0.0000000000
     21529      1529  TIP3      H2              2.6638690398       42.7913070443       71.7632447594  TIP3      1393            0.0000000000
     21530      1530  TIP3      OH2             6.8190047078       42.9586054110       69.2456531062  TIP3      1394            0.0000000000
     21531      1530  TIP3      H1              7.7652834823       42.7152321107       69.2260714354  TIP3      1394            0.0000000000
     21532      1530  TIP3      H2              6.6106785808       43.0222535174       68.2799594368  TIP3      1394            0.0000000000
     21533      1531  TIP3      OH2            12.5478523526       40.7577023629       76.3619012894  TIP3      1395            0.0000000000
     21534      1531  TIP3      H1             11.7962268730       40.3763850983       76.8514026742  TIP3      1395            0.0000000000
     21535      1531  TIP3      H2             12.7092326165       40.1219523879       75.6489130902  TIP3      1395            0.0000000000
     21536      1532  TIP3      OH2            15.9196640423       56.6472701259       82.7212794694  TIP3      1396            0.0000000000
     21537      1532  TIP3      H1             16.2833028149       56.7621394006       81.8147460068  TIP3      1396            0.0000000000
     21538      1532  TIP3      H2             16.7527719738       56.6947624416       83.2352180961  TIP3      1396            0.0000000000
     21539      1533  TIP3      OH2             3.5612135076       48.9198680795       82.6264096907  TIP3      1397            0.0000000000
     21540      1533  TIP3      H1              4.2664540872       48.8638695683       83.3131481441  TIP3      1397            0.0000000000
     21541      1533  TIP3      H2              2.7554298646       48.7855207856       83.1652725264  TIP3      1397            0.0000000000
     21542      1534  TIP3      OH2             9.1992257680       44.3237929547       74.5802247362  TIP3      1398            0.0000000000
     21543      1534  TIP3      H1             10.1730657110       44.2486437653       74.4373452288  TIP3      1398            0.0000000000
     21544      1534  TIP3      H2              8.9221692002       43.4217215393       74.3751474479  TIP3      1398            0.0000000000
     21545      1535  TIP3      OH2             5.3908205304       39.9250167348       71.7370504666  TIP3      1399            0.0000000000
     21546      1535  TIP3      H1              4.6372940435       39.2965046463       71.7563777115  TIP3      1399            0.0000000000
     21547      1535  TIP3      H2              5.8972941746       39.6080712502       70.9702556205  TIP3      1399            0.0000000000
     21548      1536  TIP3      OH2             8.3568225641       42.0436737929       77.1002748710  TIP3      1400            0.0000000000
     21549      1536  TIP3      H1              7.6923355380       42.7429891530       76.9097567491  TIP3      1400            0.0000000000
     21550      1536  TIP3      H2              9.1046448867       42.5693079864       77.4065553970  TIP3      1400            0.0000000000
     21551      1537  TIP3      OH2             9.2836097188       49.1345832157       69.5392153011  TIP3      1401            0.0000000000
     21552      1537  TIP3      H1              8.6004755453       48.5573484953       69.1588948381  TIP3      1401            0.0000000000
     21553      1537  TIP3      H2              8.8073134480       49.4824142619       70.3205027720  TIP3      1401            0.0000000000
     21554      1538  TIP3      OH2            16.4635196523       48.1487830315       78.0907203178  TIP3      1402            0.0000000000
     21555      1538  TIP3      H1             16.9838318611       48.6796540628       77.4448289505  TIP3      1402            0.0000000000
     21556      1538  TIP3      H2             15.6984092525       47.9244484641       77.5272491119  TIP3      1402            0.0000000000
     21557      1539  TIP3      OH2            12.1753635013       41.7831584773       67.4557060248  TIP3      1403            0.0000000000
     21558      1539  TIP3      H1             11.3801191373       42.1088890848       67.8982998038  TIP3      1403            0.0000000000
     21559      1539  TIP3      H2             12.8985857951       42.3344595853       67.8085046445  TIP3      1403            0.0000000000
     21560      1540  TIP3      OH2             9.8681495904       48.9690439840       79.8194272439  TIP3      1404            0.0000000000
     21561      1540  TIP3      H1             10.0686127486       48.8271693421       80.7501481293  TIP3      1404            0.0000000000
     21562      1540  TIP3      H2              9.5938737799       49.9041301849       79.8107900184  TIP3      1404            0.0000000000
     21563      1541  TIP3      OH2            14.1234388225       43.3603576136       68.8494896038  TIP3      1405            0.0000000000
     21564      1541  TIP3      H1             14.7893509406       43.2180251151       69.5537830608  TIP3      1405            0.0000000000
     21565      1541  TIP3      H2             14.0328113239       44.3381763407       68.8504222100  TIP3      1405            0.0000000000
     21566      1542  TIP3      OH2             4.1944971142       48.2350934118       74.6888599435  TIP3      1406            0.0000000000
     21567      1542  TIP3      H1              4.5805328386       48.1543995335       73.7865944144  TIP3      1406            0.0000000000
     21568      1542  TIP3      H2              4.5661948395       47.4643809802       75.1558753662  TIP3      1406            0.0000000000
     21569      1543  TIP3      OH2             1.7093477024       46.1615348918       79.9784748091  TIP3      1407            0.0000000000
     21570      1543  TIP3      H1              1.5468203625       45.8381467998       80.8858714798  TIP3      1407            0.0000000000
     21571      1543  TIP3      H2              0.8347677492       45.9613027433       79.5667802051  TIP3      1407            0.0000000000
     21572      1544  TIP3      OH2             7.4074239280       46.4069084710       81.8400723015  TIP3      1408            0.0000000000
     21573      1544  TIP3      H1              7.2689102040       46.4154193020       80.8717463184  TIP3      1408            0.0000000000
     21574      1544  TIP3      H2              8.1695599770       45.8032872557       81.8958974554  TIP3      1408            0.0000000000
     21575      1545  TIP3      OH2            12.9948389292       51.5859182751       80.6414911916  TIP3      1409            0.0000000000
     21576      1545  TIP3      H1             12.2199030447       51.7448337432       80.0896522744  TIP3      1409            0.0000000000
     21577      1545  TIP3      H2             12.6900192784       51.9694570237       81.4921815394  TIP3      1409            0.0000000000
     21578      1546  TIP3      OH2            17.7462050908       43.8294108071       68.6889956830  TIP3      1410            0.0000000000
     21579      1546  TIP3      H1             17.1952872530       43.6208156526       67.8853116156  TIP3      1410            0.0000000000
     21580      1546  TIP3      H2             17.9564580732       44.7775167483       68.5044778643  TIP3      1410            0.0000000000
     21581      1547  TIP3      OH2            18.6413220432       49.6824423250       81.3612209092  TIP3      1411            0.0000000000
     21582      1547  TIP3      H1             17.7426593894       49.6643143220       80.9638137554  TIP3      1411            0.0000000000
     21583      1547  TIP3      H2             19.2003954182       49.5125201192       80.5669553604  TIP3      1411            0.0000000000
     21584      1548  TIP3      OH2            16.8356642685       52.3944524068       68.9063183483  TIP3      1412            0.0000000000
     21585      1548  TIP3      H1             16.5654887427       51.5874879778       69.3761181394  TIP3      1412            0.0000000000
     21586      1548  TIP3      H2             17.2749668377       52.0562339806       68.1240052824  TIP3      1412            0.0000000000
     21587      1549  TIP3      OH2            14.2412702754       47.3321958119       76.2907137825  TIP3      1413            0.0000000000
     21588      1549  TIP3      H1             13.3206317412       47.1434602708       76.0441324398  TIP3      1413            0.0000000000
     21589      1549  TIP3      H2             14.7293895578       46.7640643744       75.6693869687  TIP3      1413            0.0000000000
     21590      1550  TIP3      OH2             6.1676329826       51.5994053146       72.6121509492  TIP3      1414            0.0000000000
     21591      1550  TIP3      H1              6.5375698920       52.5009615422       72.4594244667  TIP3      1414            0.0000000000
     21592      1550  TIP3      H2              5.2642767866       51.7159693371       72.2799332363  TIP3      1414            0.0000000000
     21593      1551  TIP3      OH2             7.8116195075       49.6089059494       71.8361620596  TIP3      1415            0.0000000000
     21594      1551  TIP3      H1              7.2179001096       50.3506294668       72.0761884289  TIP3      1415            0.0000000000
     21595      1551  TIP3      H2              7.3116047657       48.8623540223       72.2007640356  TIP3      1415            0.0000000000
     21596      1552  TIP3      OH2             8.1570621694       53.5379039564       78.4958689650  TIP3      1416            0.0000000000
     21597      1552  TIP3      H1              8.8236865750       54.1557777502       78.1254359651  TIP3      1416            0.0000000000
     21598      1552  TIP3      H2              8.6961924155       53.1060886233       79.1877959002  TIP3      1416            0.0000000000
     21599      1553  TIP3      OH2             6.8684914993       54.0826126463       71.9324661995  TIP3      1417            0.0000000000
     21600      1553  TIP3      H1              5.9389156513       54.4073153571       71.9356012797  TIP3      1417            0.0000000000
     21601      1553  TIP3      H2              7.2966818578       54.9241225363       72.1853814519  TIP3      1417            0.0000000000
     21602      1554  TIP3      OH2            11.7380105287       49.3864736741       77.8133387887  TIP3      1418            0.0000000000
     21603      1554  TIP3      H1             11.1726566010       49.1485784644       78.5913973990  TIP3      1418            0.0000000000
     21604      1554  TIP3      H2             11.9748897290       48.4992236226       77.4866872806  TIP3      1418            0.0000000000
     21605      1555  TIP3      OH2            14.8851488833       53.9927917447       80.1991793355  TIP3      1419            0.0000000000
     21606      1555  TIP3      H1             14.0711669533       53.4694140279       80.1005471418  TIP3      1419            0.0000000000
     21607      1555  TIP3      H2             14.7586011400       54.6559059830       79.4875209269  TIP3      1419            0.0000000000
     21608      1556  TIP3      OH2             2.7024096721       41.3556587754       79.7916290364  TIP3      1420            0.0000000000
     21609      1556  TIP3      H1              2.4148522995       42.0357807139       80.4531045894  TIP3      1420            0.0000000000
     21610      1556  TIP3      H2              2.1135861572       40.6183973919       80.0308652097  TIP3      1420            0.0000000000
     21611      1557  TIP3      OH2            15.2638446704       49.2236685043       69.5491936494  TIP3      1421            0.0000000000
     21612      1557  TIP3      H1             15.0455923552       48.3776883006       70.0018025092  TIP3      1421            0.0000000000
     21613      1557  TIP3      H2             16.2204574042       49.0910085778       69.3721167118  TIP3      1421            0.0000000000
     21614      1558  TIP3      OH2             2.2242976298       52.7021287754       78.1757425374  TIP3      1422            0.0000000000
     21615      1558  TIP3      H1              2.8022149926       51.9717947159       78.4407870384  TIP3      1422            0.0000000000
     21616      1558  TIP3      H2              2.6590942266       53.4450406660       78.6114469136  TIP3      1422            0.0000000000
     21617      1559  TIP3      OH2             3.5140677711       48.5969893630       68.1606120679  TIP3      1423            0.0000000000
     21618      1559  TIP3      H1              2.6721733061       49.0440189017       68.3851750496  TIP3      1423            0.0000000000
     21619      1559  TIP3      H2              4.0017919731       49.3426321277       67.7808873527  TIP3      1423            0.0000000000
     21620      1560  TIP3      OH2            11.3934509421       41.2939342932       79.1763694444  TIP3      1424            0.0000000000
     21621      1560  TIP3      H1             12.1007499449       41.4563866780       79.8203442713  TIP3      1424            0.0000000000
     21622      1560  TIP3      H2             11.1321160765       40.3619671949       79.3409379395  TIP3      1424            0.0000000000
     21623      1561  TIP3      OH2            12.1597877421       39.8162486156       69.9429089768  TIP3      1425            0.0000000000
     21624      1561  TIP3      H1             12.3473058061       40.2883921362       69.1085750613  TIP3      1425            0.0000000000
     21625      1561  TIP3      H2             12.5626577737       40.4102684194       70.6200194551  TIP3      1425            0.0000000000
     21626      1562  TIP3      OH2             9.7378985582       53.3130225362       68.1241596257  TIP3      1426            0.0000000000
     21627      1562  TIP3      H1              9.0207351085       53.4485885984       68.7704427239  TIP3      1426            0.0000000000
     21628      1562  TIP3      H2             10.4907040491       53.6931348483       68.5898313571  TIP3      1426            0.0000000000
     21629      1563  TIP3      OH2             9.5811636118       42.8084295613       69.6023841844  TIP3      1427            0.0000000000
     21630      1563  TIP3      H1             10.3043511025       43.4735279020       69.7083568740  TIP3      1427            0.0000000000
     21631      1563  TIP3      H2              9.4160649077       42.5757581181       70.5315196782  TIP3      1427            0.0000000000
     21632      1564  TIP3      OH2            10.4896954063       43.8720973942       79.4460537187  TIP3      1428            0.0000000000
     21633      1564  TIP3      H1             10.3405747486       44.0421075396       80.3940529866  TIP3      1428            0.0000000000
     21634      1564  TIP3      H2             10.6316525272       42.9011904032       79.3756387976  TIP3      1428            0.0000000000
     21635      1565  TIP3      OH2             9.9366039625       39.0688407014       71.4383239247  TIP3      1429            0.0000000000
     21636      1565  TIP3      H1              9.7940808050       39.6781301420       72.1951264883  TIP3      1429            0.0000000000
     21637      1565  TIP3      H2             10.7105789906       39.4743926737       70.9952032958  TIP3      1429            0.0000000000
     21638      1566  TIP3      OH2             7.1672133801       53.7957991645       69.3340382538  TIP3      1430            0.0000000000
     21639      1566  TIP3      H1              6.7375453700       54.6092386457       69.0299927841  TIP3      1430            0.0000000000
     21640      1566  TIP3      H2              7.0852217025       53.8575582424       70.3113492820  TIP3      1430            0.0000000000
     21641      1567  TIP3      OH2            15.8324353135       41.3144954928       80.4004527212  TIP3      1431            0.0000000000
     21642      1567  TIP3      H1             15.0013639993       41.7726974975       80.6152388346  TIP3      1431            0.0000000000
     21643      1567  TIP3      H2             15.7425206626       41.2420711124       79.4287211005  TIP3      1431            0.0000000000
     21644      1568  TIP3      OH2            15.0702623856       45.3356532466       74.4369991390  TIP3      1432            0.0000000000
     21645      1568  TIP3      H1             14.3702871467       44.7585904319       74.7715376974  TIP3      1432            0.0000000000
     21646      1568  TIP3      H2             15.8405173075       44.9564002425       74.9272848092  TIP3      1432            0.0000000000
     21647      1569  TIP3      OH2            15.7800596177       54.6550395446       76.4896307531  TIP3      1433            0.0000000000
     21648      1569  TIP3      H1             15.8824398675       55.2469040445       75.7079178030  TIP3      1433            0.0000000000
     21649      1569  TIP3      H2             16.7226611001       54.6319457499       76.7802452992  TIP3      1433            0.0000000000
     21650      1570  TIP3      OH2             3.5386310972       38.7437841177       74.9246271529  TIP3      1434            0.0000000000
     21651      1570  TIP3      H1              3.3127967200       38.7208030693       73.9701316517  TIP3      1434            0.0000000000
     21652      1570  TIP3      H2              3.2486074208       37.8469046449       75.2157133941  TIP3      1434            0.0000000000
     21653      1571  TIP3      OH2             2.3492265605       52.9416380023       71.5346701628  TIP3      1435            0.0000000000
     21654      1571  TIP3      H1              1.6605812963       53.2464143668       72.1684092031  TIP3      1435            0.0000000000
     21655      1571  TIP3      H2              1.9186027045       53.1454951631       70.6853015122  TIP3      1435            0.0000000000
     21656      1572  TIP3      OH2             0.9772646163       54.7180382548       82.2726548688  TIP3      1436            0.0000000000
     21657      1572  TIP3      H1              1.2558172985       54.9505417527       83.1633185279  TIP3      1436            0.0000000000
     21658      1572  TIP3      H2              0.8382701785       53.7673099442       82.3788713837  TIP3      1436            0.0000000000
     21659      1573  TIP3      OH2             6.1824827268       54.1338965675       84.0128400911  TIP3      1437            0.0000000000
     21660      1573  TIP3      H1              7.0607002303       53.7358478364       84.1806629522  TIP3      1437            0.0000000000
     21661      1573  TIP3      H2              5.9589774840       53.7185564649       83.1578877165  TIP3      1437            0.0000000000
     21662      1574  TIP3      OH2            12.4761893072       52.8057004412       83.0096995960  TIP3      1438            0.0000000000
     21663      1574  TIP3      H1             12.1665980580       51.9122264992       83.3120373763  TIP3      1438            0.0000000000
     21664      1574  TIP3      H2             13.3498029555       52.8738944791       83.4653883221  TIP3      1438            0.0000000000
     21665      1575  TIP3      OH2             0.9625515981       48.7589102154       83.6377934057  TIP3      1439            0.0000000000
     21666      1575  TIP3      H1              0.9569292597       47.9236074849       83.1474350489  TIP3      1439            0.0000000000
     21667      1575  TIP3      H2              0.0673953563       49.0875959148       83.4328095246  TIP3      1439            0.0000000000
     21668      1576  TIP3      OH2             8.0189052206       48.8997653039       82.6454594754  TIP3      1440            0.0000000000
     21669      1576  TIP3      H1              7.9253455649       49.5199801116       81.8906463864  TIP3      1440            0.0000000000
     21670      1576  TIP3      H2              7.7724385887       48.0358677358       82.2509229911  TIP3      1440            0.0000000000
     21671      1577  TIP3      OH2            13.7056487295       48.7707518731       80.7371298191  TIP3      1441            0.0000000000
     21672      1577  TIP3      H1             14.5784571346       49.1962615717       80.5643160255  TIP3      1441            0.0000000000
     21673      1577  TIP3      H2             13.2159575895       49.5838906821       80.9343490229  TIP3      1441            0.0000000000
     21674      1578  TIP3      OH2             2.0340110991       45.9315414298       83.0839021557  TIP3      1442            0.0000000000
     21675      1578  TIP3      H1              2.4190822228       45.0881500300       83.3864552919  TIP3      1442            0.0000000000
     21676      1578  TIP3      H2              2.3110220110       46.5017156578       83.8235175377  TIP3      1442            0.0000000000
     21677      1579  TIP3      OH2             7.4307780560       46.7084663510       68.5127663637  TIP3      1443            0.0000000000
     21678      1579  TIP3      H1              6.6422127307       46.8359008761       69.0731729678  TIP3      1443            0.0000000000
     21679      1579  TIP3      H2              7.1897431987       45.8788097673       68.0726616561  TIP3      1443            0.0000000000
     21680      1580  TIP3      OH2             5.7502362120       44.9283499613       79.4454888250  TIP3      1444            0.0000000000
     21681      1580  TIP3      H1              5.2792728143       45.7733626018       79.5999909750  TIP3      1444            0.0000000000
     21682      1580  TIP3      H2              6.5913003019       45.3077052493       79.1033180058  TIP3      1444            0.0000000000
     21683      1581  TIP3      OH2            11.6789633152       47.9763917498       83.6573654055  TIP3      1445            0.0000000000
     21684      1581  TIP3      H1             12.2269665375       47.3235068049       83.1811040452  TIP3      1445            0.0000000000
     21685      1581  TIP3      H2             11.2626783646       47.4407144116       84.3557635235  TIP3      1445            0.0000000000
     21686      1582  TIP3      OH2            17.6184313144       47.9960433601       65.0117200585  TIP3      1446            0.0000000000
     21687      1582  TIP3      H1             17.5039474777       47.0717445272       64.7721000900  TIP3      1446            0.0000000000
     21688      1582  TIP3      H2             18.0983549221       47.9179420839       65.8488874139  TIP3      1446            0.0000000000
     21689      1583  TIP3      OH2             7.0401140142       43.2029116390       81.0350870305  TIP3      1447            0.0000000000
     21690      1583  TIP3      H1              6.9867852321       42.4266331188       80.4379576417  TIP3      1447            0.0000000000
     21691      1583  TIP3      H2              6.5455971649       43.8555305368       80.4935703243  TIP3      1447            0.0000000000
     21692      1584  TIP3      OH2             7.0940798900       41.0249492482       79.1853402088  TIP3      1448            0.0000000000
     21693      1584  TIP3      H1              7.4627591001       41.2549097913       78.3003339519  TIP3      1448            0.0000000000
     21694      1584  TIP3      H2              6.1392960290       40.9965509556       78.9631852292  TIP3      1448            0.0000000000
     21695      1585  TIP3      OH2             8.1332317578       46.3597934758       79.0609380504  TIP3      1449            0.0000000000
     21696      1585  TIP3      H1              9.0876091440       46.2464183753       78.9659418734  TIP3      1449            0.0000000000
     21697      1585  TIP3      H2              7.9551620812       47.1670511075       78.5219427535  TIP3      1449            0.0000000000
     21698      1586  TIP3      OH2            12.4996303204       44.2802063156       84.1950376943  TIP3      1450            0.0000000000
     21699      1586  TIP3      H1             12.6231497828       43.3525487058       84.4923612154  TIP3      1450            0.0000000000
     21700      1586  TIP3      H2             13.4233496320       44.5566197886       84.1120319074  TIP3      1450            0.0000000000
     21701      1587  TIP3      OH2            14.3719860989       47.0944408344       82.6928037762  TIP3      1451            0.0000000000
     21702      1587  TIP3      H1             13.9564077928       47.6379178822       81.9844011505  TIP3      1451            0.0000000000
     21703      1587  TIP3      H2             15.2518169796       46.9377097397       82.3046497468  TIP3      1451            0.0000000000
     21704      1588  TIP3      OH2             5.4253537166       43.2761108698       83.4376826593  TIP3      1452            0.0000000000
     21705      1588  TIP3      H1              4.4840750817       43.0660711170       83.2857618010  TIP3      1452            0.0000000000
     21706      1588  TIP3      H2              5.7211842365       43.6543774128       82.5903465882  TIP3      1452            0.0000000000
     21707      1589  TIP3      OH2             7.9151300158       38.4583920709       79.1348961740  TIP3      1453            0.0000000000
     21708      1589  TIP3      H1              7.6260864596       39.4018464510       79.0727158534  TIP3      1453            0.0000000000
     21709      1589  TIP3      H2              7.2698325134       38.0014108581       78.5813381103  TIP3      1453            0.0000000000
     21710      1590  TIP3      OH2             8.6325992517       42.8403913477       83.1697369704  TIP3      1454            0.0000000000
     21711      1590  TIP3      H1              7.9809432189       42.5033785724       83.8217306917  TIP3      1454            0.0000000000
     21712      1590  TIP3      H2              8.1002525226       42.7547908819       82.3466323712  TIP3      1454            0.0000000000
     21713      1591  TIP3      OH2            11.0829149502       42.0993977329       82.2062896543  TIP3      1455            0.0000000000
     21714      1591  TIP3      H1             10.1674622103       42.0850320525       82.5524565188  TIP3      1455            0.0000000000
     21715      1591  TIP3      H2             11.4901090155       41.3811488089       82.7461647256  TIP3      1455            0.0000000000
     21716      1592  TIP3      OH2            12.5432309005       40.2284984474       83.5897607192  TIP3      1456            0.0000000000
     21717      1592  TIP3      H1             12.7521717156       39.2733635510       83.6788379757  TIP3      1456            0.0000000000
     21718      1592  TIP3      H2             12.9032824609       40.6267676493       84.4062320113  TIP3      1456            0.0000000000
     21719      1593  TIP3      OH2             2.7955151557       41.4608580533       83.3502145349  TIP3      1457            0.0000000000
     21720      1593  TIP3      H1              2.9413183690       40.6311168535       82.8727350250  TIP3      1457            0.0000000000
     21721      1593  TIP3      H2              2.7718610490       41.1455634099       84.2880247514  TIP3      1457            0.0000000000
     21722      1594  TIP3      OH2             7.4791207442       37.5763988508       81.7964242882  TIP3      1458            0.0000000000
     21723      1594  TIP3      H1              8.0456350359       36.7738984873       81.7798280143  TIP3      1458            0.0000000000
     21724      1594  TIP3      H2              7.6201521217       37.8930185953       80.8754870504  TIP3      1458            0.0000000000
     21725      1595  TIP3      OH2             7.9321412984       38.8727277186       84.7246876242  TIP3      1459            0.0000000000
     21726      1595  TIP3      H1              7.7983578637       38.3785916581       83.8978473426  TIP3      1459            0.0000000000
     21727      1595  TIP3      H2              7.8217319561       39.7959080663       84.4078901386  TIP3      1459            0.0000000000
     21728      1596  TIP3      OH2             7.3921645828       56.1531065535       67.5610960245  TIP3      1460            0.0000000000
     21729      1596  TIP3      H1              8.3382425151       56.0926035902       67.7887788918  TIP3      1460            0.0000000000
     21730      1596  TIP3      H2              7.3564077341       57.0141964584       67.1482546356  TIP3      1460            0.0000000000
     21731      1597  TIP3      OH2             0.6433219018       56.0148694851       71.2536975439  TIP3      1461            0.0000000000
     21732      1597  TIP3      H1             -0.3129952507       56.0147090981       71.1223296045  TIP3      1461            0.0000000000
     21733      1597  TIP3      H2              0.6873625274       55.5930998827       72.1298394312  TIP3      1461            0.0000000000
     21734      1598  TIP3      OH2             1.1143257320       54.3372114559       73.6136561784  TIP3      1462            0.0000000000
     21735      1598  TIP3      H1              0.3831775681       53.8603392781       74.0281657227  TIP3      1462            0.0000000000
     21736      1598  TIP3      H2              1.6316730745       54.6474514170       74.3855798589  TIP3      1462            0.0000000000
     21737      1599  TIP3      OH2            18.3144898781       55.3815211016       76.9302118462  TIP3      1463            0.0000000000
     21738      1599  TIP3      H1             18.8043546039       55.4691817768       77.7643543790  TIP3      1463            0.0000000000
     21739      1599  TIP3      H2             18.9656063008       55.6946220748       76.3007171558  TIP3      1463            0.0000000000
     21740      1600  TIP3      OH2            18.1605883172       54.4164351781       79.5845900665  TIP3      1464            0.0000000000
     21741      1600  TIP3      H1             17.8991951791       53.6423747584       79.0373879518  TIP3      1464            0.0000000000
     21742      1600  TIP3      H2             18.4035923111       53.9429848623       80.4081017017  TIP3      1464            0.0000000000
     21743      1601  TIP3      OH2            16.8392117454       50.3010653800       84.5581087193  TIP3      1465            0.0000000000
     21744      1601  TIP3      H1             15.9959677464       50.5580048864       84.9824869120  TIP3      1465            0.0000000000
     21745      1601  TIP3      H2             17.4862570208       50.9820430085       84.8948381986  TIP3      1465            0.0000000000
     21746      1602  TIP3      OH2            17.8622311782       48.5523420337       69.4199950772  TIP3      1466            0.0000000000
     21747      1602  TIP3      H1             18.8035331571       48.8570591637       69.3599645844  TIP3      1466            0.0000000000
     21748      1602  TIP3      H2             17.9329932012       47.9835529951       70.2148524437  TIP3      1466            0.0000000000
     21749      1603  TIP3      OH2            18.7330130963       46.4925525648       71.0710086363  TIP3      1467            0.0000000000
     21750      1603  TIP3      H1             17.8727132552       46.0970775211       71.3376512372  TIP3      1467            0.0000000000
     21751      1603  TIP3      H2             19.1443399402       46.6013933747       71.9543784497  TIP3      1467            0.0000000000
     21752      1604  TIP3      OH2            18.0411792734       49.4271278390       76.2960254165  TIP3      1468            0.0000000000
     21753      1604  TIP3      H1             18.7527796848       48.7907514479       76.0788027796  TIP3      1468            0.0000000000
     21754      1604  TIP3      H2             18.4155173286       50.2733151304       75.9791636904  TIP3      1468            0.0000000000
     21755      1605  TIP3      OH2            16.7395181634       52.1690853273       78.8140355986  TIP3      1469            0.0000000000
     21756      1605  TIP3      H1             16.0989206343       52.6869487072       79.3414107903  TIP3      1469            0.0000000000
     21757      1605  TIP3      H2             16.2258949422       52.0587088548       77.9733054667  TIP3      1469            0.0000000000
     21758      1606  TIP3      OH2            17.7835307449       46.4818546164       67.7319094228  TIP3      1470            0.0000000000
     21759      1606  TIP3      H1             16.9455031703       46.5981715264       67.2677066941  TIP3      1470            0.0000000000
     21760      1606  TIP3      H2             17.7701994855       47.1892735557       68.4128810683  TIP3      1470            0.0000000000
     21761      1607  TIP3      OH2            16.2854624927       43.4207957956       66.3697630222  TIP3      1471            0.0000000000
     21762      1607  TIP3      H1             15.3873096383       43.7218497040       66.1889497469  TIP3      1471            0.0000000000
     21763      1607  TIP3      H2             16.5616598108       43.1118064624       65.4774049129  TIP3      1471            0.0000000000
     21764      1608  TIP3      OH2            16.6214076396       45.2388663500       72.2410144303  TIP3      1472            0.0000000000
     21765      1608  TIP3      H1             16.4638671271       44.3423755776       71.8802379117  TIP3      1472            0.0000000000
     21766      1608  TIP3      H2             16.1110627304       45.2004712651       73.0778385679  TIP3      1472            0.0000000000
     21767      1609  TIP3      OH2             1.0832169592       46.9417611905       76.2481343858  TIP3      1473            0.0000000000
     21768      1609  TIP3      H1              1.0144713535       47.0357015903       75.2770756935  TIP3      1473            0.0000000000
     21769      1609  TIP3      H2              2.0539470784       46.8469034498       76.3586773129  TIP3      1473            0.0000000000
     21770      1610  TIP3      OH2            17.2819481997       46.9735344531       81.7696545616  TIP3      1474            0.0000000000
     21771      1610  TIP3      H1             17.6762761587       46.0999759717       82.0273850613  TIP3      1474            0.0000000000
     21772      1610  TIP3      H2             18.0605599611       47.5028428963       81.5301562956  TIP3      1474            0.0000000000
     21773      1611  TIP3      OH2            18.2987758624       44.6981407827       82.7364779614  TIP3      1475            0.0000000000
     21774      1611  TIP3      H1             17.4446974948       44.2240439184       82.6343987677  TIP3      1475            0.0000000000
     21775      1611  TIP3      H2             18.9298974785       43.9317324014       82.7488735993  TIP3      1475            0.0000000000
     21776      1612  TIP3      OH2            16.1302567333       42.9614417911       70.7433867883  TIP3      1476            0.0000000000
     21777      1612  TIP3      H1             16.1920420803       41.9887301361       70.8098676536  TIP3      1476            0.0000000000
     21778      1612  TIP3      H2             16.7937021824       43.1662331068       70.0469072659  TIP3      1476            0.0000000000
     21779      1613  TIP3      OH2            16.9361329037       43.7160624960       75.5911501162  TIP3      1477            0.0000000000
     21780      1613  TIP3      H1             17.9138905222       43.7083582453       75.7471881164  TIP3      1477            0.0000000000
     21781      1613  TIP3      H2             16.6663276673       43.7058470039       76.5386009158  TIP3      1477            0.0000000000
     21782      1614  TIP3      OH2            16.5926525308       44.1691677100       78.2009185704  TIP3      1478            0.0000000000
     21783      1614  TIP3      H1             15.7775089277       44.5592527831       78.5979070831  TIP3      1478            0.0000000000
     21784      1614  TIP3      H2             17.2424334654       44.8858955141       78.3708479116  TIP3      1478            0.0000000000
     21785      1615  TIP3      OH2             1.6968858622       43.1610044603       81.6561335943  TIP3      1479            0.0000000000
     21786      1615  TIP3      H1              2.1014058610       42.6668207781       82.4120177882  TIP3      1479            0.0000000000
     21787      1615  TIP3      H2              0.7808813414       43.2336283125       81.9771392158  TIP3      1479            0.0000000000
     21788      1616  TIP3      OH2            18.8901222852       38.6033544751       83.6058539117  TIP3      1480            0.0000000000
     21789      1616  TIP3      H1             19.1766854536       37.7623475962       83.1965857278  TIP3      1480            0.0000000000
     21790      1616  TIP3      H2             18.7946295543       39.1779304879       82.8198630122  TIP3      1480            0.0000000000
     21791      1617  TIP3      OH2            16.8462673102       40.1922661668       70.3232829174  TIP3      1481            0.0000000000
     21792      1617  TIP3      H1             16.9002185424       39.8531899116       71.2479074060  TIP3      1481            0.0000000000
     21793      1617  TIP3      H2             16.5388342194       39.3903552981       69.8578397685  TIP3      1481            0.0000000000
     21794      1618  TIP3      OH2             2.2352416648       41.0747356832       75.7469521241  TIP3      1482            0.0000000000
     21795      1618  TIP3      H1              2.7178290293       40.2237494102       75.7384455062  TIP3      1482            0.0000000000
     21796      1618  TIP3      H2              2.9757348658       41.7267925474       75.7980831088  TIP3      1482            0.0000000000
     21797      1619  TIP3      OH2             0.4760256817       44.1948007707       76.7006604040  TIP3      1483            0.0000000000
     21798      1619  TIP3      H1              1.3274934864       43.7168016822       76.7324729979  TIP3      1483            0.0000000000
     21799      1619  TIP3      H2              0.8252548300       45.1088732819       76.6823470435  TIP3      1483            0.0000000000
     21800      1620  TIP3      OH2            17.9940414046       40.5315201442       81.9606928754  TIP3      1484            0.0000000000
     21801      1620  TIP3      H1             17.4597634175       40.7340840539       82.7602966281  TIP3      1484            0.0000000000
     21802      1620  TIP3      H2             17.2728559840       40.3775235812       81.3169444481  TIP3      1484            0.0000000000
     21803      1621  TIP3      OH2             0.6398177774       40.3885110281       69.9035062616  TIP3      1485            0.0000000000
     21804      1621  TIP3      H1              0.3720258422       40.4613339514       70.8272316805  TIP3      1485            0.0000000000
     21805      1621  TIP3      H2              0.8262494387       41.3087862627       69.6143137130  TIP3      1485            0.0000000000
     21806      1622  TIP3      OH2            15.6243745839       54.9224228680       72.2048443164  TIP3      1486            0.0000000000
     21807      1622  TIP3      H1             16.3493456401       54.9636410516       71.5524211555  TIP3      1486            0.0000000000
     21808      1622  TIP3      H2             15.9469697290       55.4471084431       72.9670010681  TIP3      1486            0.0000000000
     21809      1623  TIP3      OH2             0.4489422424       38.7824224736       78.4821958823  TIP3      1487            0.0000000000
     21810      1623  TIP3      H1             -0.3231837719       38.1960012716       78.6231188470  TIP3      1487            0.0000000000
     21811      1623  TIP3      H2              0.1268736470       39.3780418830       77.7868163834  TIP3      1487            0.0000000000
     21812      1624  TIP3      OH2             2.6687897447       51.6042484754       82.9165515463  TIP3      1488            0.0000000000
     21813      1624  TIP3      H1              2.1314817649       50.9975793256       82.3883894046  TIP3      1488            0.0000000000
     21814      1624  TIP3      H2              3.2960483768       51.0090986600       83.3527022208  TIP3      1488            0.0000000000
     21815      1625  TIP3      OH2             5.5741342028       53.4272424294       79.2110547557  TIP3      1489            0.0000000000
     21816      1625  TIP3      H1              5.4938242312       54.3710914112       78.9665253236  TIP3      1489            0.0000000000
     21817      1625  TIP3      H2              6.5301313921       53.3027418053       79.0148485989  TIP3      1489            0.0000000000
     21818      1626  TIP3      OH2             9.6709552538       54.5866051577       81.6809710399  TIP3      1490            0.0000000000
     21819      1626  TIP3      H1              9.7354832046       54.2679733355       82.6053093336  TIP3      1490            0.0000000000
     21820      1626  TIP3      H2             10.5576582659       54.9780431511       81.5516276450  TIP3      1490            0.0000000000
     21821      1627  TIP3      OH2            12.0212162233       56.1036770968       81.3459311686  TIP3      1491            0.0000000000
     21822      1627  TIP3      H1             12.7214312142       55.4852376425       81.0961365032  TIP3      1491            0.0000000000
     21823      1627  TIP3      H2             12.3688194630       56.4577170871       82.1864865305  TIP3      1491            0.0000000000
     21824      1628  TIP3      OH2            16.9418312332       38.2071526060       80.2658201994  TIP3      1492            0.0000000000
     21825      1628  TIP3      H1             16.2230152209       38.6691750939       79.8089714455  TIP3      1492            0.0000000000
     21826      1628  TIP3      H2             16.9504446307       37.3155925056       79.8548848779  TIP3      1492            0.0000000000
     21827      1629  TIP3      OH2             2.9016176439       56.3373169583       79.2370534965  TIP3      1493            0.0000000000
     21828      1629  TIP3      H1              2.0681820587       56.7351960616       78.8875067790  TIP3      1493            0.0000000000
     21829      1629  TIP3      H2              2.8338688450       56.5526542222       80.1789788349  TIP3      1493            0.0000000000
     21830      1630  TIP3      OH2             5.2983815668       56.2874094270       77.9419285120  TIP3      1494            0.0000000000
     21831      1630  TIP3      H1              4.3845851014       56.3703217281       78.3002711323  TIP3      1494            0.0000000000
     21832      1630  TIP3      H2              5.4010209949       57.0762537762       77.3711123027  TIP3      1494            0.0000000000
     21833      1631  TIP3      OH2             9.9016985402       55.2855460420       77.1374014561  TIP3      1495            0.0000000000
     21834      1631  TIP3      H1              9.2094238939       55.8475831798       76.7350276328  TIP3      1495            0.0000000000
     21835      1631  TIP3      H2             10.2899325578       55.9294186034       77.7720674665  TIP3      1495            0.0000000000
     21836      1632  TIP3      OH2            12.2193000961       54.1991606554       78.6808511412  TIP3      1496            0.0000000000
     21837      1632  TIP3      H1             11.6225396070       54.3024506387       77.9146256828  TIP3      1496            0.0000000000
     21838      1632  TIP3      H2             12.8831268630       54.8857584403       78.4594958799  TIP3      1496            0.0000000000
     21839      1633  TIP3      OH2            14.4287498783       56.0376978063       78.2426875869  TIP3      1497            0.0000000000
     21840      1633  TIP3      H1             14.6130370222       56.9426016288       77.9149046481  TIP3      1497            0.0000000000
     21841      1633  TIP3      H2             14.8697592454       55.5330100703       77.5169491544  TIP3      1497            0.0000000000
     21842      1634  TIP3      OH2             2.5529246210       55.0684783941       75.9084206941  TIP3      1498            0.0000000000
     21843      1634  TIP3      H1              2.1867243130       54.4936333177       76.5940416718  TIP3      1498            0.0000000000
     21844      1634  TIP3      H2              3.3763730028       54.5981661501       75.6370121015  TIP3      1498            0.0000000000
     21845      1635  TIP3      OH2             4.5884518064       53.7501543496       74.7520871232  TIP3      1499            0.0000000000
     21846      1635  TIP3      H1              4.5084595750       52.7937691157       74.8812866747  TIP3      1499            0.0000000000
     21847      1635  TIP3      H2              5.4679166660       53.9091079837       75.1663468525  TIP3      1499            0.0000000000
     21848      1636  TIP3      OH2             6.9361229803       53.9862693978       75.8442516346  TIP3      1500            0.0000000000
     21849      1636  TIP3      H1              7.2711351231       53.0800383620       75.6948965898  TIP3      1500            0.0000000000
     21850      1636  TIP3      H2              7.1651197376       54.1046145313       76.7834838741  TIP3      1500            0.0000000000
     21851      1637  TIP3      OH2             9.7230055576       40.1356618097       73.8661617100  TIP3      1501            0.0000000000
     21852      1637  TIP3      H1              9.0868844126       39.6666537511       74.4627640117  TIP3      1501            0.0000000000
     21853      1637  TIP3      H2             10.5619463225       39.8750782492       74.2691682433  TIP3      1501            0.0000000000
     21854      1638  TIP3      OH2            15.7233540456       38.2135909911       74.4656485600  TIP3      1502            0.0000000000
     21855      1638  TIP3      H1             16.4631005923       38.7052967382       74.0394111430  TIP3      1502            0.0000000000
     21856      1638  TIP3      H2             14.9410641810       38.5866426035       74.0011130614  TIP3      1502            0.0000000000
     21857      1639  TIP3      OH2            17.4656405128       39.3257938832       72.8156195551  TIP3      1503            0.0000000000
     21858      1639  TIP3      H1             17.9883374668       38.5643939087       72.4509959552  TIP3      1503            0.0000000000
     21859      1639  TIP3      H2             18.2151021334       39.9173977755       73.0822966879  TIP3      1503            0.0000000000
     21860      1640  TIP3      OH2             3.1609890711       38.3110848873       72.0807412642  TIP3      1504            0.0000000000
     21861      1640  TIP3      H1              2.2399978354       38.1796509725       71.7616477877  TIP3      1504            0.0000000000
     21862      1640  TIP3      H2              3.5568637682       37.4253665270       71.9191587171  TIP3      1504            0.0000000000
     21863      1641  TIP3      OH2             7.5635229441       37.8040046268       72.2257295845  TIP3      1505            0.0000000000
     21864      1641  TIP3      H1              8.3559851376       38.2426375549       71.8782149818  TIP3      1505            0.0000000000
     21865      1641  TIP3      H2              7.7506113601       37.8517354111       73.1740492872  TIP3      1505            0.0000000000
     21866      1642  TIP3      OH2            13.1891431488       38.4210770151       73.4044888444  TIP3      1506            0.0000000000
     21867      1642  TIP3      H1             12.6065009584       38.1783605617       72.6738060643  TIP3      1506            0.0000000000
     21868      1642  TIP3      H2             13.0384642609       37.6450098319       73.9967255500  TIP3      1506            0.0000000000
     21869      1643  TIP3      OH2            15.1269201363       37.9513749092       69.7645818296  TIP3      1507            0.0000000000
     21870      1643  TIP3      H1             14.6318955292       38.6901147244       70.1495214388  TIP3      1507            0.0000000000
     21871      1643  TIP3      H2             14.4603591446       37.2337383866       69.8586943737  TIP3      1507            0.0000000000
     21872      1644  TIP3      OH2             1.7228236127       54.2027714144       68.8501545423  TIP3      1508            0.0000000000
     21873      1644  TIP3      H1              1.0587753625       54.9010940968       68.7271206106  TIP3      1508            0.0000000000
     21874      1644  TIP3      H2              2.5150668855       54.6766562347       68.5493661864  TIP3      1508            0.0000000000
     21875      1645  TIP3      OH2             8.2830077903       39.3747665801       69.2703119749  TIP3      1509            0.0000000000
     21876      1645  TIP3      H1              8.8841674903       39.4396941633       70.0330838780  TIP3      1509            0.0000000000
     21877      1645  TIP3      H2              8.5310386926       40.1103367878       68.6899362629  TIP3      1509            0.0000000000
     21878      1646  TIP3      OH2            10.2633032272       56.1068915749       67.3928179992  TIP3      1510            0.0000000000
     21879      1646  TIP3      H1             10.8964028870       56.5503624601       66.8024953697  TIP3      1510            0.0000000000
     21880      1646  TIP3      H2             10.4030095731       55.2064071215       67.0623797382  TIP3      1510            0.0000000000
     21881      1647  TIP3      OH2            17.4262365443       54.7876091971       70.1583375901  TIP3      1511            0.0000000000
     21882      1647  TIP3      H1             17.4085773193       53.8873258277       69.7673401583  TIP3      1511            0.0000000000
     21883      1647  TIP3      H2             16.7391774963       55.2230259114       69.6400913408  TIP3      1511            0.0000000000
     21884      1648  TIP3      OH2             2.7636910123       38.7397421149       81.6036439565  TIP3      1512            0.0000000000
     21885      1648  TIP3      H1              2.2038161726       37.9629936780       81.7687365092  TIP3      1512            0.0000000000
     21886      1648  TIP3      H2              3.4642635934       38.6411712633       82.2888007100  TIP3      1512            0.0000000000
     21887      1649  TIP3      OH2             4.6998971217       38.3384165633       83.5587180410  TIP3      1513            0.0000000000
     21888      1649  TIP3      H1              5.4029154709       38.2572261113       82.8799731569  TIP3      1513            0.0000000000
     21889      1649  TIP3      H2              4.8033466403       37.4872201465       84.0072596765  TIP3      1513            0.0000000000
     21890      1650  TIP3      OH2            13.1710052503       37.6329068648       83.6961121585  TIP3      1514            0.0000000000
     21891      1650  TIP3      H1             13.3594930718       37.1634256595       84.5377563683  TIP3      1514            0.0000000000
     21892      1650  TIP3      H2             14.0574805927       37.5719768061       83.2785558940  TIP3      1514            0.0000000000
     21893      1651  TIP3      OH2            16.4883425418       53.5723076733       82.3528312696  TIP3      1515            0.0000000000
     21894      1651  TIP3      H1             15.8184867926       53.5046105687       81.6323094791  TIP3      1515            0.0000000000
     21895      1651  TIP3      H2             16.5452965923       54.5381035207       82.4311465379  TIP3      1515            0.0000000000
     21896      1652  TIP3      OH2            31.5439991932       47.6822257044       72.1881105910  TIP3      1516            0.0000000000
     21897      1652  TIP3      H1             31.4352608678       48.6134589344       72.4760747370  TIP3      1516            0.0000000000
     21898      1652  TIP3      H2             30.7227594031       47.5728468480       71.6808022216  TIP3      1516            0.0000000000
     21899      1653  TIP3      OH2            29.7599824919       46.6122726431       75.4930749283  TIP3      1517            0.0000000000
     21900      1653  TIP3      H1             29.9623196862       46.1333773122       76.3257108688  TIP3      1517            0.0000000000
     21901      1653  TIP3      H2             29.0322312401       46.0915102793       75.1016126381  TIP3      1517            0.0000000000
     21902      1654  TIP3      OH2            22.1633138853       46.1743412894       76.8208512888  TIP3      1518            0.0000000000
     21903      1654  TIP3      H1             22.1249579083       45.6119330254       77.6133761180  TIP3      1518            0.0000000000
     21904      1654  TIP3      H2             23.0547592519       45.9459020611       76.4698630001  TIP3      1518            0.0000000000
     21905      1655  TIP3      OH2            33.5257662551       50.1256409502       74.1485265333  TIP3      1519            0.0000000000
     21906      1655  TIP3      H1             34.0192400510       49.3865741744       74.5297784303  TIP3      1519            0.0000000000
     21907      1655  TIP3      H2             33.5143381924       50.7663324865       74.8827497553  TIP3      1519            0.0000000000
     21908      1656  TIP3      OH2            23.3535857229       50.7621005210       75.8475305514  TIP3      1520            0.0000000000
     21909      1656  TIP3      H1             23.0313297062       50.0105516760       75.3066011538  TIP3      1520            0.0000000000
     21910      1656  TIP3      H2             24.3020055098       50.7615805678       75.5763168850  TIP3      1520            0.0000000000
     21911      1657  TIP3      OH2            19.8523036208       43.8667632366       71.1260459759  TIP3      1521            0.0000000000
     21912      1657  TIP3      H1             19.7711120947       44.8371988229       71.0963259356  TIP3      1521            0.0000000000
     21913      1657  TIP3      H2             18.9254396779       43.6241395775       71.0335539610  TIP3      1521            0.0000000000
     21914      1658  TIP3      OH2            19.8524168595       46.4161949322       73.6759440988  TIP3      1522            0.0000000000
     21915      1658  TIP3      H1             20.2184801916       45.4988460821       73.7084887351  TIP3      1522            0.0000000000
     21916      1658  TIP3      H2             20.6439098467       46.9582650228       73.5358694212  TIP3      1522            0.0000000000
     21917      1659  TIP3      OH2            30.9229960349       55.1760697288       74.3220782903  TIP3      1523            0.0000000000
     21918      1659  TIP3      H1             31.5742302912       54.6506640743       73.7949958998  TIP3      1523            0.0000000000
     21919      1659  TIP3      H2             30.3649482178       54.4526397876       74.6335140275  TIP3      1523            0.0000000000
     21920      1660  TIP3      OH2            28.0041283122       49.8088517285       76.4715886814  TIP3      1524            0.0000000000
     21921      1660  TIP3      H1             28.2473291364       49.0106544113       75.9772081398  TIP3      1524            0.0000000000
     21922      1660  TIP3      H2             28.8589920102       49.9828879891       76.9184283557  TIP3      1524            0.0000000000
     21923      1661  TIP3      OH2            36.5925309288       40.6303539840       76.9433508567  TIP3      1525            0.0000000000
     21924      1661  TIP3      H1             36.8207179862       41.0383936541       77.8148995355  TIP3      1525            0.0000000000
     21925      1661  TIP3      H2             37.3664913241       40.9589557259       76.4544611345  TIP3      1525            0.0000000000
     21926      1662  TIP3      OH2            32.0131085861       43.7013673823       76.8889950904  TIP3      1526            0.0000000000
     21927      1662  TIP3      H1             31.8541310884       42.8099558242       77.2382387539  TIP3      1526            0.0000000000
     21928      1662  TIP3      H2             31.9740644706       43.5381937918       75.9259192980  TIP3      1526            0.0000000000
     21929      1663  TIP3      OH2            24.8456678868       41.4425547547       73.4244414885  TIP3      1527            0.0000000000
     21930      1663  TIP3      H1             24.8814005623       42.2681976907       72.8960849177  TIP3      1527            0.0000000000
     21931      1663  TIP3      H2             24.2546476358       40.9233730867       72.8371634774  TIP3      1527            0.0000000000
     21932      1664  TIP3      OH2            31.9568247950       41.9637453125       72.9559566385  TIP3      1528            0.0000000000
     21933      1664  TIP3      H1             32.5433693571       41.4889931804       73.5916861031  TIP3      1528            0.0000000000
     21934      1664  TIP3      H2             32.6456203367       42.4254525286       72.4429364563  TIP3      1528            0.0000000000
     21935      1665  TIP3      OH2            21.0296037478       43.9924900065       74.0503029215  TIP3      1529            0.0000000000
     21936      1665  TIP3      H1             21.6836718111       43.6766834285       74.6972292137  TIP3      1529            0.0000000000
     21937      1665  TIP3      H2             21.4378952296       43.6503476286       73.2228749045  TIP3      1529            0.0000000000
     21938      1666  TIP3      OH2            25.8010235846       45.6466744623       73.8509151670  TIP3      1530            0.0000000000
     21939      1666  TIP3      H1             26.7436071405       45.3946351851       73.8898956006  TIP3      1530            0.0000000000
     21940      1666  TIP3      H2             25.4365112900       44.9104370475       73.3122679311  TIP3      1530            0.0000000000
     21941      1667  TIP3      OH2            37.1060805446       41.9484562609       79.1637896898  TIP3      1531            0.0000000000
     21942      1667  TIP3      H1             36.7390439672       42.8204740925       78.8621355568  TIP3      1531            0.0000000000
     21943      1667  TIP3      H2             36.9577816875       42.0402727502       80.1178884907  TIP3      1531            0.0000000000
     21944      1668  TIP3      OH2            23.9779853198       40.8829767344       77.6915677646  TIP3      1532            0.0000000000
     21945      1668  TIP3      H1             23.5704923137       41.3579904809       76.9363984551  TIP3      1532            0.0000000000
     21946      1668  TIP3      H2             23.3211848654       41.1235745467       78.3776602526  TIP3      1532            0.0000000000
     21947      1669  TIP3      OH2            30.5659083326       50.1881691474       71.5566528979  TIP3      1533            0.0000000000
     21948      1669  TIP3      H1             30.8793330577       49.9437806079       70.6670921674  TIP3      1533            0.0000000000
     21949      1669  TIP3      H2             30.7938340931       51.1302370500       71.6173079365  TIP3      1533            0.0000000000
     21950      1670  TIP3      OH2            25.5614108794       48.4413354179       77.1723780700  TIP3      1534            0.0000000000
     21951      1670  TIP3      H1             24.9554567130       49.0335372989       77.6709459039  TIP3      1534            0.0000000000
     21952      1670  TIP3      H2             26.2897888958       49.0664720683       76.9776621303  TIP3      1534            0.0000000000
     21953      1671  TIP3      OH2            34.2241268299       41.4289049161       74.2557129115  TIP3      1535            0.0000000000
     21954      1671  TIP3      H1             34.3073437666       40.6929868624       74.8753570932  TIP3      1535            0.0000000000
     21955      1671  TIP3      H2             34.8606965540       42.0754038665       74.6218207135  TIP3      1535            0.0000000000
     21956      1672  TIP3      OH2            23.2876656149       42.4966489417       75.5705429554  TIP3      1536            0.0000000000
     21957      1672  TIP3      H1             23.8805818413       43.1413152197       76.0161707935  TIP3      1536            0.0000000000
     21958      1672  TIP3      H2             23.7978078297       42.2839918024       74.7510226041  TIP3      1536            0.0000000000
     21959      1673  TIP3      OH2            24.4617343205       50.4520805669       78.6545019464  TIP3      1537            0.0000000000
     21960      1673  TIP3      H1             24.0796946500       50.9635734276       77.9224607347  TIP3      1537            0.0000000000
     21961      1673  TIP3      H2             23.6480320883       50.3108111225       79.2075790862  TIP3      1537            0.0000000000
     21962      1674  TIP3      OH2            20.3123685881       49.6192527301       69.1779676839  TIP3      1538            0.0000000000
     21963      1674  TIP3      H1             20.2655337759       50.2189413157       68.3903996412  TIP3      1538            0.0000000000
     21964      1674  TIP3      H2             20.4093433603       50.2865826521       69.9018269201  TIP3      1538            0.0000000000
     21965      1675  TIP3      OH2            33.9645428579       51.7649746079       76.4746004457  TIP3      1539            0.0000000000
     21966      1675  TIP3      H1             33.0124784980       51.7636663603       76.7444900626  TIP3      1539            0.0000000000
     21967      1675  TIP3      H2             34.0575944643       52.6845055790       76.1587310767  TIP3      1539            0.0000000000
     21968      1676  TIP3      OH2            33.9877705541       40.0778514591       77.9141081451  TIP3      1540            0.0000000000
     21969      1676  TIP3      H1             33.2866197825       40.4283118603       77.3142831802  TIP3      1540            0.0000000000
     21970      1676  TIP3      H2             34.8145106829       40.2214776799       77.4244259428  TIP3      1540            0.0000000000
     21971      1677  TIP3      OH2            26.8869238924       37.7312153010       75.5020641913  TIP3      1541            0.0000000000
     21972      1677  TIP3      H1             26.4202775107       36.9436256438       75.1928673449  TIP3      1541            0.0000000000
     21973      1677  TIP3      H2             26.0994034122       38.3320226128       75.5810805861  TIP3      1541            0.0000000000
     21974      1678  TIP3      OH2            32.5813964524       53.5360701229       73.0086188298  TIP3      1542            0.0000000000
     21975      1678  TIP3      H1             32.5535983837       52.7203252379       72.4760430474  TIP3      1542            0.0000000000
     21976      1678  TIP3      H2             33.3253928404       53.9977735262       72.5674734852  TIP3      1542            0.0000000000
     21977      1679  TIP3      OH2            33.2858679728       51.1984520660       71.5546826112  TIP3      1543            0.0000000000
     21978      1679  TIP3      H1             33.5722752020       50.5083398728       70.9136698987  TIP3      1543            0.0000000000
     21979      1679  TIP3      H2             33.3721229950       50.7663737031       72.4228858556  TIP3      1543            0.0000000000
     21980      1680  TIP3      OH2            34.8321480198       49.8360435965       79.9973413851  TIP3      1544            0.0000000000
     21981      1680  TIP3      H1             35.0328327837       49.1707871691       79.3034879904  TIP3      1544            0.0000000000
     21982      1680  TIP3      H2             35.1142746415       50.6501570010       79.5300468953  TIP3      1544            0.0000000000
     21983      1681  TIP3      OH2            29.5711118114       46.8803618264       69.5016251779  TIP3      1545            0.0000000000
     21984      1681  TIP3      H1             29.0865296030       47.7344274418       69.5181718530  TIP3      1545            0.0000000000
     21985      1681  TIP3      H2             29.6081416801       46.7622062203       68.5259086555  TIP3      1545            0.0000000000
     21986      1682  TIP3      OH2            37.1794887070       46.4849645642       78.1149893858  TIP3      1546            0.0000000000
     21987      1682  TIP3      H1             36.5096580293       47.1391209914       77.8191469524  TIP3      1546            0.0000000000
     21988      1682  TIP3      H2             37.8812690791       46.7249691469       77.4759231206  TIP3      1546            0.0000000000
     21989      1683  TIP3      OH2            33.6299569316       46.8836089706       70.7614075207  TIP3      1547            0.0000000000
     21990      1683  TIP3      H1             32.9168811896       47.1631580566       71.3807151520  TIP3      1547            0.0000000000
     21991      1683  TIP3      H2             34.1951146905       46.3184154157       71.3143230784  TIP3      1547            0.0000000000
     21992      1684  TIP3      OH2            32.5707932441       45.4305108174       80.2290281616  TIP3      1548            0.0000000000
     21993      1684  TIP3      H1             32.2072299332       46.2365402629       80.6338945718  TIP3      1548            0.0000000000
     21994      1684  TIP3      H2             32.1146476929       45.4828677833       79.3618131597  TIP3      1548            0.0000000000
     21995      1685  TIP3      OH2            24.4560060361       47.4891476831       72.5733443584  TIP3      1549            0.0000000000
     21996      1685  TIP3      H1             23.9065126118       46.8842629631       72.0253224706  TIP3      1549            0.0000000000
     21997      1685  TIP3      H2             25.1066555764       46.8637888147       72.9518869878  TIP3      1549            0.0000000000
     21998      1686  TIP3      OH2            25.9070264285       50.9333010731       75.0843762587  TIP3      1550            0.0000000000
     21999      1686  TIP3      H1             26.0910598750       50.7862600130       74.1382043833  TIP3      1550            0.0000000000
     22000      1686  TIP3      H2             26.7262663649       50.5995651472       75.5160123920  TIP3      1550            0.0000000000
     22001      1687  TIP3      OH2            24.8141587893       46.0294157117       76.3005729935  TIP3      1551            0.0000000000
     22002      1687  TIP3      H1             25.1398956932       46.0482692886       75.3672130010  TIP3      1551            0.0000000000
     22003      1687  TIP3      H2             25.2067461588       46.8715783663       76.6429162957  TIP3      1551            0.0000000000
     22004      1688  TIP3      OH2            31.4180014350       51.9458981043       77.2280862979  TIP3      1552            0.0000000000
     22005      1688  TIP3      H1             31.1149993433       52.5314499798       77.9420529047  TIP3      1552            0.0000000000
     22006      1688  TIP3      H2             31.0315369611       51.1000092537       77.5285678976  TIP3      1552            0.0000000000
     22007      1689  TIP3      OH2            26.2903388400       50.9200339417       80.5750514014  TIP3      1553            0.0000000000
     22008      1689  TIP3      H1             25.6195355918       51.2942236017       81.1967578296  TIP3      1553            0.0000000000
     22009      1689  TIP3      H2             25.6943403919       50.7582129405       79.8049655538  TIP3      1553            0.0000000000
     22010      1690  TIP3      OH2            32.8851423627       45.5809853723       68.4535064250  TIP3      1554            0.0000000000
     22011      1690  TIP3      H1             33.1432433901       46.2663111986       69.1006391501  TIP3      1554            0.0000000000
     22012      1690  TIP3      H2             32.6076669051       46.1055200288       67.6746975274  TIP3      1554            0.0000000000
     22013      1691  TIP3      OH2            23.0616181806       46.4819927297       80.0172642481  TIP3      1555            0.0000000000
     22014      1691  TIP3      H1             23.2915568854       47.3765744402       80.3129883384  TIP3      1555            0.0000000000
     22015      1691  TIP3      H2             22.3350705937       46.3030751398       80.6477747480  TIP3      1555            0.0000000000
     22016      1692  TIP3      OH2            29.7944482568       53.3334548071       71.1945104853  TIP3      1556            0.0000000000
     22017      1692  TIP3      H1             29.5307858178       53.3477645699       72.1214664755  TIP3      1556            0.0000000000
     22018      1692  TIP3      H2             29.3796270923       54.1392267573       70.8394412456  TIP3      1556            0.0000000000
     22019      1693  TIP3      OH2            24.2037694285       52.2466820690       81.9014982810  TIP3      1557            0.0000000000
     22020      1693  TIP3      H1             24.2129519122       52.9089404330       81.1785758052  TIP3      1557            0.0000000000
     22021      1693  TIP3      H2             23.2401578751       52.0658359358       81.9567850810  TIP3      1557            0.0000000000
     22022      1694  TIP3      OH2            35.4114158553       38.0109395133       68.6446170161  TIP3      1558            0.0000000000
     22023      1694  TIP3      H1             34.4830365462       37.8170945111       68.4584831913  TIP3      1558            0.0000000000
     22024      1694  TIP3      H2             35.2881518129       38.6369548333       69.3935930685  TIP3      1558            0.0000000000
     22025      1695  TIP3      OH2            22.8768425944       46.3129559832       70.7237395810  TIP3      1559            0.0000000000
     22026      1695  TIP3      H1             22.9183990784       47.1905064872       70.2831473065  TIP3      1559            0.0000000000
     22027      1695  TIP3      H2             22.2850151746       45.8854594586       70.0924015786  TIP3      1559            0.0000000000
     22028      1696  TIP3      OH2            19.8629851036       49.1426798573       79.0230136701  TIP3      1560            0.0000000000
     22029      1696  TIP3      H1             19.4059740045       49.3325925510       78.1962647329  TIP3      1560            0.0000000000
     22030      1696  TIP3      H2             20.2321905334       48.2559604213       78.8574047080  TIP3      1560            0.0000000000
     22031      1697  TIP3      OH2            19.9258854427       51.6500834606       75.9572568631  TIP3      1561            0.0000000000
     22032      1697  TIP3      H1             20.7798676652       51.1974675435       75.8711428246  TIP3      1561            0.0000000000
     22033      1697  TIP3      H2             20.0412076151       52.1469486295       76.7937776500  TIP3      1561            0.0000000000
     22034      1698  TIP3      OH2            37.7876444709       52.4754634973       81.5926744332  TIP3      1562            0.0000000000
     22035      1698  TIP3      H1             37.6020733718       51.5309375852       81.4544659759  TIP3      1562            0.0000000000
     22036      1698  TIP3      H2             36.9237608460       52.7291036020       81.9965151477  TIP3      1562            0.0000000000
     22037      1699  TIP3      OH2            28.7727648722       51.9483921381       80.3155889692  TIP3      1563            0.0000000000
     22038      1699  TIP3      H1             28.9256910870       52.4018323835       81.1618193959  TIP3      1563            0.0000000000
     22039      1699  TIP3      H2             27.8770701993       51.5637804013       80.4625373184  TIP3      1563            0.0000000000
     22040      1700  TIP3      OH2            29.4532714124       55.9080800264       69.8577335430  TIP3      1564            0.0000000000
     22041      1700  TIP3      H1             29.1474440351       56.2193747023       68.9964138135  TIP3      1564            0.0000000000
     22042      1700  TIP3      H2             29.2309587140       56.6742579513       70.4384004767  TIP3      1564            0.0000000000
     22043      1701  TIP3      OH2            22.5656106948       54.2385895553       72.6591147680  TIP3      1565            0.0000000000
     22044      1701  TIP3      H1             22.9500686878       54.0423224800       73.5394416976  TIP3      1565            0.0000000000
     22045      1701  TIP3      H2             21.6726931038       53.8885623967       72.7649996984  TIP3      1565            0.0000000000
     22046      1702  TIP3      OH2            33.0688999720       54.6985697565       66.9882173906  TIP3      1566            0.0000000000
     22047      1702  TIP3      H1             33.0101703193       53.7759301853       66.6945403736  TIP3      1566            0.0000000000
     22048      1702  TIP3      H2             32.7321472350       54.6663137096       67.9026139202  TIP3      1566            0.0000000000
     22049      1703  TIP3      OH2            32.2564737937       55.1171485586       69.5522837855  TIP3      1567            0.0000000000
     22050      1703  TIP3      H1             31.3791161667       55.0155993601       69.9587653009  TIP3      1567            0.0000000000
     22051      1703  TIP3      H2             32.8559717907       54.8866439567       70.3018539934  TIP3      1567            0.0000000000
     22052      1704  TIP3      OH2            34.8724399616       44.3292560116       81.9242593085  TIP3      1568            0.0000000000
     22053      1704  TIP3      H1             34.3191299059       44.8000191631       81.2679975491  TIP3      1568            0.0000000000
     22054      1704  TIP3      H2             34.8802032753       43.4231868573       81.5500364943  TIP3      1568            0.0000000000
     22055      1705  TIP3      OH2            22.1691133536       50.2103226912       79.9329250518  TIP3      1569            0.0000000000
     22056      1705  TIP3      H1             22.2426286664       49.8104816776       80.8341685588  TIP3      1569            0.0000000000
     22057      1705  TIP3      H2             21.2690992580       49.9252796407       79.6735580895  TIP3      1569            0.0000000000
     22058      1706  TIP3      OH2            24.6282723966       39.0673106162       75.8642999505  TIP3      1570            0.0000000000
     22059      1706  TIP3      H1             23.6777618741       38.8595509092       75.7719382183  TIP3      1570            0.0000000000
     22060      1706  TIP3      H2             24.6182606852       39.7078974926       76.6071689916  TIP3      1570            0.0000000000
     22061      1707  TIP3      OH2            29.6170613881       38.6730039009       79.1217571978  TIP3      1571            0.0000000000
     22062      1707  TIP3      H1             29.9813432177       38.1735337108       79.8900924430  TIP3      1571            0.0000000000
     22063      1707  TIP3      H2             28.6522785784       38.5215695611       79.2125403178  TIP3      1571            0.0000000000
     22064      1708  TIP3      OH2            32.3174495588       42.6932599940       80.7908173606  TIP3      1572            0.0000000000
     22065      1708  TIP3      H1             31.4624322464       42.4760839044       81.2448746352  TIP3      1572            0.0000000000
     22066      1708  TIP3      H2             32.1935587909       43.6342558839       80.5584032188  TIP3      1572            0.0000000000
     22067      1709  TIP3      OH2            24.9338205441       43.6648746209       77.4984083961  TIP3      1573            0.0000000000
     22068      1709  TIP3      H1             24.0624925054       43.7138206578       77.9538131107  TIP3      1573            0.0000000000
     22069      1709  TIP3      H2             24.9593052204       44.5546184462       77.0764432164  TIP3      1573            0.0000000000
     22070      1710  TIP3      OH2            24.7840832205       43.7956587763       72.1113439226  TIP3      1574            0.0000000000
     22071      1710  TIP3      H1             23.8098943009       43.7795021168       71.9602354959  TIP3      1574            0.0000000000
     22072      1710  TIP3      H2             25.1094354946       43.7954697193       71.1861057197  TIP3      1574            0.0000000000
     22073      1711  TIP3      OH2            30.1909652316       45.0413612836       71.4698367569  TIP3      1575            0.0000000000
     22074      1711  TIP3      H1             29.7508325677       45.7073788024       70.8903373849  TIP3      1575            0.0000000000
     22075      1711  TIP3      H2             31.0715569271       45.1021233610       71.0854327435  TIP3      1575            0.0000000000
     22076      1712  TIP3      OH2            29.3678362135       45.1830294092       82.0658783808  TIP3      1576            0.0000000000
     22077      1712  TIP3      H1             29.0501937052       44.4099283386       82.5589444851  TIP3      1576            0.0000000000
     22078      1712  TIP3      H2             29.9006004320       45.6318441082       82.7469136949  TIP3      1576            0.0000000000
     22079      1713  TIP3      OH2            31.6833388325       44.5844387357       74.1718387480  TIP3      1577            0.0000000000
     22080      1713  TIP3      H1             31.2000655675       45.3693645759       73.8611033369  TIP3      1577            0.0000000000
     22081      1713  TIP3      H2             31.3508238451       43.9279076573       73.5342530474  TIP3      1577            0.0000000000
     22082      1714  TIP3      OH2            22.4317525440       43.8831332477       78.4637786787  TIP3      1578            0.0000000000
     22083      1714  TIP3      H1             22.6624013370       44.4511649835       79.2164384085  TIP3      1578            0.0000000000
     22084      1714  TIP3      H2             22.1375492000       43.0589595569       78.9065461630  TIP3      1578            0.0000000000
     22085      1715  TIP3      OH2            19.6103708927       40.9725627869       73.1821401560  TIP3      1579            0.0000000000
     22086      1715  TIP3      H1             20.1873101822       41.0159687542       73.9677193916  TIP3      1579            0.0000000000
     22087      1715  TIP3      H2             19.8349728233       41.7981299708       72.7252790569  TIP3      1579            0.0000000000
     22088      1716  TIP3      OH2            19.8306200597       41.9200598879       68.4237441028  TIP3      1580            0.0000000000
     22089      1716  TIP3      H1             20.3839209383       42.2705717156       67.7241964352  TIP3      1580            0.0000000000
     22090      1716  TIP3      H2             19.0864938542       42.5589112368       68.4350887919  TIP3      1580            0.0000000000
     22091      1717  TIP3      OH2            30.5448258289       45.6530125518       77.9854274068  TIP3      1581            0.0000000000
     22092      1717  TIP3      H1             31.1104289356       44.9584459527       77.5705945327  TIP3      1581            0.0000000000
     22093      1717  TIP3      H2             29.9390703131       45.1165194717       78.5492361184  TIP3      1581            0.0000000000
     22094      1718  TIP3      OH2            27.8174155843       41.3834194442       73.2812940435  TIP3      1582            0.0000000000
     22095      1718  TIP3      H1             26.8733237320       41.5211667492       73.4945475668  TIP3      1582            0.0000000000
     22096      1718  TIP3      H2             28.1475839368       40.8992151962       74.0752490964  TIP3      1582            0.0000000000
     22097      1719  TIP3      OH2            22.1874534723       42.9110051771       71.8990043454  TIP3      1583            0.0000000000
     22098      1719  TIP3      H1             21.4244724590       43.1626149877       71.3260523278  TIP3      1583            0.0000000000
     22099      1719  TIP3      H2             22.4532107549       42.0309369041       71.5447161232  TIP3      1583            0.0000000000
     22100      1720  TIP3      OH2            25.5986965903       43.1045189978       69.5797565419  TIP3      1584            0.0000000000
     22101      1720  TIP3      H1             26.4478949283       42.9533593971       70.0553378862  TIP3      1584            0.0000000000
     22102      1720  TIP3      H2             25.9047588085       43.7070667440       68.8946522992  TIP3      1584            0.0000000000
     22103      1721  TIP3      OH2            31.8129805145       40.7475881096       76.5582613575  TIP3      1585            0.0000000000
     22104      1721  TIP3      H1             31.2200132884       40.6824136592       77.3385582001  TIP3      1585            0.0000000000
     22105      1721  TIP3      H2             31.3926304128       40.1215729097       75.9477358244  TIP3      1585            0.0000000000
     22106      1722  TIP3      OH2            34.6584419642       56.4678630542       82.8994277034  TIP3      1586            0.0000000000
     22107      1722  TIP3      H1             34.9303431604       56.5662299943       81.9573253737  TIP3      1586            0.0000000000
     22108      1722  TIP3      H2             35.4803409555       56.6572240050       83.3673601834  TIP3      1586            0.0000000000
     22109      1723  TIP3      OH2            22.5338250515       48.7724869401       82.2334362095  TIP3      1587            0.0000000000
     22110      1723  TIP3      H1             23.2020368762       49.0785421352       82.8733616623  TIP3      1587            0.0000000000
     22111      1723  TIP3      H2             21.7567326933       48.6115116183       82.8117703891  TIP3      1587            0.0000000000
     22112      1724  TIP3      OH2            28.1713395174       44.4646299025       74.8254884568  TIP3      1588            0.0000000000
     22113      1724  TIP3      H1             28.8817990821       43.8458706639       74.5824123749  TIP3      1588            0.0000000000
     22114      1724  TIP3      H2             27.7787625199       44.0194728764       75.6036625198  TIP3      1588            0.0000000000
     22115      1725  TIP3      OH2            23.2273950355       40.3810179205       71.5548856789  TIP3      1589            0.0000000000
     22116      1725  TIP3      H1             22.7541246344       39.6017035215       71.9296078591  TIP3      1589            0.0000000000
     22117      1725  TIP3      H2             23.5417714588       40.0289533450       70.7133796320  TIP3      1589            0.0000000000
     22118      1726  TIP3      OH2            27.5002579714       42.7645299124       77.2759787340  TIP3      1590            0.0000000000
     22119      1726  TIP3      H1             26.6036423507       43.1270876236       77.4440183475  TIP3      1590            0.0000000000
     22120      1726  TIP3      H2             28.0452633632       43.2807534074       77.8966979282  TIP3      1590            0.0000000000
     22121      1727  TIP3      OH2            28.0404494517       49.1269617312       69.5095439129  TIP3      1591            0.0000000000
     22122      1727  TIP3      H1             27.3720195496       48.7767247880       68.8741365110  TIP3      1591            0.0000000000
     22123      1727  TIP3      H2             27.4551407572       49.3931736998       70.2534331025  TIP3      1591            0.0000000000
     22124      1728  TIP3      OH2            35.4685941095       48.5401123187       77.6927254126  TIP3      1592            0.0000000000
     22125      1728  TIP3      H1             35.8911346437       48.9626675642       76.9075756218  TIP3      1592            0.0000000000
     22126      1728  TIP3      H2             34.5956708589       48.2746098748       77.3436216453  TIP3      1592            0.0000000000
     22127      1729  TIP3      OH2            30.8195702890       41.5352666775       67.0789077098  TIP3      1593            0.0000000000
     22128      1729  TIP3      H1             30.1538543066       41.0171604497       67.5544766623  TIP3      1593            0.0000000000
     22129      1729  TIP3      H2             31.3247296474       42.0061402403       67.7759703295  TIP3      1593            0.0000000000
     22130      1730  TIP3      OH2            28.6122228396       48.7520850467       79.8222953595  TIP3      1594            0.0000000000
     22131      1730  TIP3      H1             29.1348658793       48.7514189495       80.6383851326  TIP3      1594            0.0000000000
     22132      1730  TIP3      H2             28.2983070546       49.6736456533       79.7900745443  TIP3      1594            0.0000000000
     22133      1731  TIP3      OH2            32.5664691997       42.9205319098       68.6847634519  TIP3      1595            0.0000000000
     22134      1731  TIP3      H1             32.8834772672       43.0523894762       69.5891302961  TIP3      1595            0.0000000000
     22135      1731  TIP3      H2             32.5805291042       43.8643578603       68.3930238892  TIP3      1595            0.0000000000
     22136      1732  TIP3      OH2            22.7507207967       48.3884482455       74.5105198270  TIP3      1596            0.0000000000
     22137      1732  TIP3      H1             23.2687643882       48.2076274178       73.6911424260  TIP3      1596            0.0000000000
     22138      1732  TIP3      H2             23.0914885532       47.7438512761       75.1393371597  TIP3      1596            0.0000000000
     22139      1733  TIP3      OH2            30.2884553938       50.3303537438       68.6933445789  TIP3      1597            0.0000000000
     22140      1733  TIP3      H1             30.0404411612       50.9633366833       69.3731332103  TIP3      1597            0.0000000000
     22141      1733  TIP3      H2             29.6317757768       49.6141280457       68.8267036891  TIP3      1597            0.0000000000
     22142      1734  TIP3      OH2            19.7682295096       46.3547465381       80.5610579152  TIP3      1598            0.0000000000
     22143      1734  TIP3      H1             19.5662731820       45.6442085687       81.1877562911  TIP3      1598            0.0000000000
     22144      1734  TIP3      H2             19.2353605256       46.1141547550       79.7750893362  TIP3      1598            0.0000000000
     22145      1735  TIP3      OH2            26.8984761495       46.4177639491       81.9141798314  TIP3      1599            0.0000000000
     22146      1735  TIP3      H1             26.4495930359       45.7963800831       81.2985732663  TIP3      1599            0.0000000000
     22147      1735  TIP3      H2             27.8402755802       46.1693476897       81.7801420880  TIP3      1599            0.0000000000
     22148      1736  TIP3      OH2            31.7895220341       51.7803801440       80.6852882952  TIP3      1600            0.0000000000
     22149      1736  TIP3      H1             30.9620948158       51.9607990270       80.2116674412  TIP3      1600            0.0000000000
     22150      1736  TIP3      H2             31.5501868488       52.1381138665       81.5653886325  TIP3      1600            0.0000000000
     22151      1737  TIP3      OH2            37.3748556004       49.6971838518       81.3816474813  TIP3      1601            0.0000000000
     22152      1737  TIP3      H1             36.4592562102       49.7079744458       81.0267604028  TIP3      1601            0.0000000000
     22153      1737  TIP3      H2             37.9062681168       49.5227747999       80.5687625030  TIP3      1601            0.0000000000
     22154      1738  TIP3      OH2            35.5073381518       52.2523677668       68.8516203422  TIP3      1602            0.0000000000
     22155      1738  TIP3      H1             34.6526766502       51.8751377189       69.0970711744  TIP3      1602            0.0000000000
     22156      1738  TIP3      H2             35.9793076855       51.4249088294       68.6118523110  TIP3      1602            0.0000000000
     22157      1739  TIP3      OH2            33.1438738864       47.3615707647       76.1791613681  TIP3      1603            0.0000000000
     22158      1739  TIP3      H1             32.2246330538       47.3241795748       75.8785543927  TIP3      1603            0.0000000000
     22159      1739  TIP3      H2             33.5881330429       46.7311840254       75.5760172567  TIP3      1603            0.0000000000
     22160      1740  TIP3      OH2            24.8408375832       51.7082327725       72.5157112276  TIP3      1604            0.0000000000
     22161      1740  TIP3      H1             25.1806378610       52.6012083151       72.2557241039  TIP3      1604            0.0000000000
     22162      1740  TIP3      H2             23.9231339964       51.7844635784       72.2309635712  TIP3      1604            0.0000000000
     22163      1741  TIP3      OH2            26.3149754969       49.6191749478       71.6087756375  TIP3      1605            0.0000000000
     22164      1741  TIP3      H1             25.7079196080       50.3116590594       71.9567155823  TIP3      1605            0.0000000000
     22165      1741  TIP3      H2             26.0197776232       48.8185347210       72.0700485810  TIP3      1605            0.0000000000
     22166      1742  TIP3      OH2            27.2301216301       53.6769010182       78.7862301731  TIP3      1606            0.0000000000
     22167      1742  TIP3      H1             27.8304385713       54.2791085065       78.3236665020  TIP3      1606            0.0000000000
     22168      1742  TIP3      H2             27.8466292736       53.2441514716       79.4144547477  TIP3      1606            0.0000000000
     22169      1743  TIP3      OH2            25.2491839416       54.1808600727       71.6304283357  TIP3      1607            0.0000000000
     22170      1743  TIP3      H1             24.2860131826       54.3203016012       71.7486412434  TIP3      1607            0.0000000000
     22171      1743  TIP3      H2             25.5602986326       55.1016270639       71.7221570371  TIP3      1607            0.0000000000
     22172      1744  TIP3      OH2            30.3273990434       49.3969875997       77.7376154657  TIP3      1608            0.0000000000
     22173      1744  TIP3      H1             29.9973814081       48.9185305778       78.5226121057  TIP3      1608            0.0000000000
     22174      1744  TIP3      H2             30.6507744793       48.6681017741       77.1826685109  TIP3      1608            0.0000000000
     22175      1745  TIP3      OH2            33.6112763754       54.1399560877       80.2483343186  TIP3      1609            0.0000000000
     22176      1745  TIP3      H1             32.7821708474       53.6479893614       80.0940891792  TIP3      1609            0.0000000000
     22177      1745  TIP3      H2             33.5851806833       54.8120133016       79.5243287937  TIP3      1609            0.0000000000
     22178      1746  TIP3      OH2            38.1735234971       55.6744466794       67.2875121471  TIP3      1610            0.0000000000
     22179      1746  TIP3      H1             38.2248529652       56.3398606939       66.5586868088  TIP3      1610            0.0000000000
     22180      1746  TIP3      H2             37.5583191293       56.1338827276       67.8756988524  TIP3      1610            0.0000000000
     22181      1747  TIP3      OH2            21.8727713525       41.3609588484       79.3547887224  TIP3      1611            0.0000000000
     22182      1747  TIP3      H1             20.9657278217       41.6971743232       79.3604063418  TIP3      1611            0.0000000000
     22183      1747  TIP3      H2             21.7927083573       40.5007084635       79.8074452932  TIP3      1611            0.0000000000
     22184      1748  TIP3      OH2            34.0276354162       49.3837828632       69.6016967976  TIP3      1612            0.0000000000
     22185      1748  TIP3      H1             33.7161664102       48.4659188563       69.7184235164  TIP3      1612            0.0000000000
     22186      1748  TIP3      H2             34.8803859593       49.2226164580       69.1524440019  TIP3      1612            0.0000000000
     22187      1749  TIP3      OH2            21.1885171759       52.9784362024       78.1761308980  TIP3      1613            0.0000000000
     22188      1749  TIP3      H1             21.9760239892       52.4192602621       78.1790381577  TIP3      1613            0.0000000000
     22189      1749  TIP3      H2             21.3138969333       53.5014179701       78.9864311282  TIP3      1613            0.0000000000
     22190      1750  TIP3      OH2            22.4813626008       48.0202072587       68.5272819105  TIP3      1614            0.0000000000
     22191      1750  TIP3      H1             21.7251157774       48.5799287264       68.7974612347  TIP3      1614            0.0000000000
     22192      1750  TIP3      H2             22.5281507105       48.2731611752       67.5894564406  TIP3      1614            0.0000000000
     22193      1751  TIP3      OH2            30.5895541201       41.2406670542       79.0174462375  TIP3      1615            0.0000000000
     22194      1751  TIP3      H1             31.4423018078       41.2520298110       79.4848057864  TIP3      1615            0.0000000000
     22195      1751  TIP3      H2             30.2129498088       40.3819740588       79.2973800394  TIP3      1615            0.0000000000
     22196      1752  TIP3      OH2            30.8485245167       41.0544555861       70.6800467674  TIP3      1616            0.0000000000
     22197      1752  TIP3      H1             31.6267632846       40.7475763591       70.1908266476  TIP3      1616            0.0000000000
     22198      1752  TIP3      H2             31.2503950472       41.5981866151       71.3956482258  TIP3      1616            0.0000000000
     22199      1753  TIP3      OH2            28.0456738768       42.9887712927       70.8751307001  TIP3      1617            0.0000000000
     22200      1753  TIP3      H1             28.8109817198       43.5936057913       70.9684130292  TIP3      1617            0.0000000000
     22201      1753  TIP3      H2             28.0288795152       42.5140120860       71.7294439968  TIP3      1617            0.0000000000
     22202      1754  TIP3      OH2            29.4195092443       43.6216149749       79.5186631568  TIP3      1618            0.0000000000
     22203      1754  TIP3      H1             29.4898631566       43.7819315738       80.4776783879  TIP3      1618            0.0000000000
     22204      1754  TIP3      H2             29.7922960665       42.7182991945       79.4036498377  TIP3      1618            0.0000000000
     22205      1755  TIP3      OH2            29.0818342391       39.3884144873       71.8298668651  TIP3      1619            0.0000000000
     22206      1755  TIP3      H1             28.6841048851       39.9446889654       72.5401469611  TIP3      1619            0.0000000000
     22207      1755  TIP3      H2             29.8042294684       40.0032956734       71.5385366707  TIP3      1619            0.0000000000
     22208      1756  TIP3      OH2            25.0156916425       40.6610046193       68.3323497792  TIP3      1620            0.0000000000
     22209      1756  TIP3      H1             24.9789176784       41.5026026908       68.8252283264  TIP3      1620            0.0000000000
     22210      1756  TIP3      H2             25.8458130186       40.2474106123       68.6631663622  TIP3      1620            0.0000000000
     22211      1757  TIP3      OH2            34.9327732447       41.7796336546       81.0836259367  TIP3      1621            0.0000000000
     22212      1757  TIP3      H1             33.9664900420       41.9535550646       80.9632555265  TIP3      1621            0.0000000000
     22213      1757  TIP3      H2             35.0501439640       41.0223425169       80.5005065165  TIP3      1621            0.0000000000
     22214      1758  TIP3      OH2            34.1765520077       45.5157934898       74.5021524540  TIP3      1622            0.0000000000
     22215      1758  TIP3      H1             33.3050527636       45.0889385847       74.6531692113  TIP3      1622            0.0000000000
     22216      1758  TIP3      H2             34.7534493495       44.9237299297       75.0342506039  TIP3      1622            0.0000000000
     22217      1759  TIP3      OH2            34.4095793478       54.5967028773       76.3699364123  TIP3      1623            0.0000000000
     22218      1759  TIP3      H1             34.4604728582       55.0926685979       75.5272611493  TIP3      1623            0.0000000000
     22219      1759  TIP3      H2             35.3598085812       54.4918841011       76.5722722251  TIP3      1623            0.0000000000
     22220      1760  TIP3      OH2            22.0178356117       38.4365985657       75.5101077723  TIP3      1624            0.0000000000
     22221      1760  TIP3      H1             22.0678728733       38.3429310802       74.5344043793  TIP3      1624            0.0000000000
     22222      1760  TIP3      H2             21.7690563997       37.5226052849       75.7565172782  TIP3      1624            0.0000000000
     22223      1761  TIP3      OH2            20.5586000642       51.8300610807       70.7378346268  TIP3      1625            0.0000000000
     22224      1761  TIP3      H1             20.2061235216       52.5045881519       71.3275935975  TIP3      1625            0.0000000000
     22225      1761  TIP3      H2             20.9638377530       52.3955876794       70.0548227570  TIP3      1625            0.0000000000
     22226      1762  TIP3      OH2            20.0476126224       55.3665154345       82.6680184275  TIP3      1626            0.0000000000
     22227      1762  TIP3      H1             20.7369384347       55.1928246085       83.3502352600  TIP3      1626            0.0000000000
     22228      1762  TIP3      H2             19.7901410661       54.4467208484       82.4628931389  TIP3      1626            0.0000000000
     22229      1763  TIP3      OH2            24.9208186213       54.0054035354       83.9393856472  TIP3      1627            0.0000000000
     22230      1763  TIP3      H1             25.8470667941       53.6924209799       83.9568243476  TIP3      1627            0.0000000000
     22231      1763  TIP3      H2             24.6233491049       53.5015790493       83.1552128710  TIP3      1627            0.0000000000
     22232      1764  TIP3      OH2            31.3585526430       52.8901807294       83.1683235296  TIP3      1628            0.0000000000
     22233      1764  TIP3      H1             31.1282351029       51.9891134734       83.4687661625  TIP3      1628            0.0000000000
     22234      1764  TIP3      H2             32.2745162467       52.9855403248       83.5047427046  TIP3      1628            0.0000000000
     22235      1765  TIP3      OH2            20.0916728594       48.7173826059       83.4508717214  TIP3      1629            0.0000000000
     22236      1765  TIP3      H1             19.6675722960       47.8430500416       83.4886315730  TIP3      1629            0.0000000000
     22237      1765  TIP3      H2             19.6516623189       49.1338373505       82.6774325883  TIP3      1629            0.0000000000
     22238      1766  TIP3      OH2            26.8476271565       48.9741208294       82.6249968412  TIP3      1630            0.0000000000
     22239      1766  TIP3      H1             26.8716914671       49.4773810641       81.7917146558  TIP3      1630            0.0000000000
     22240      1766  TIP3      H2             26.7857224927       48.0453762877       82.2980481377  TIP3      1630            0.0000000000
     22241      1767  TIP3      OH2            32.2979048569       48.6960323752       80.7647386353  TIP3      1631            0.0000000000
     22242      1767  TIP3      H1             33.2336871582       48.9442409871       80.5936921392  TIP3      1631            0.0000000000
     22243      1767  TIP3      H2             31.9322871634       49.5988013885       80.8171162625  TIP3      1631            0.0000000000
     22244      1768  TIP3      OH2            21.6896016962       45.8091600407       83.1991801461  TIP3      1632            0.0000000000
     22245      1768  TIP3      H1             21.9607829234       44.9616263797       83.5762560122  TIP3      1632            0.0000000000
     22246      1768  TIP3      H2             21.7828127173       46.4056109638       83.9722980057  TIP3      1632            0.0000000000
     22247      1769  TIP3      OH2            26.2166943295       47.9515210728       68.0442901061  TIP3      1633            0.0000000000
     22248      1769  TIP3      H1             25.3568880571       47.6906097961       68.3991579729  TIP3      1633            0.0000000000
     22249      1769  TIP3      H2             26.5339716619       47.1597663403       67.5833606112  TIP3      1633            0.0000000000
     22250      1770  TIP3      OH2            25.4260984965       45.1758112989       80.1108691560  TIP3      1634            0.0000000000
     22251      1770  TIP3      H1             24.5675291244       45.6499752897       80.0776106276  TIP3      1634            0.0000000000
     22252      1770  TIP3      H2             25.8951773576       45.5898655386       79.3549991177  TIP3      1634            0.0000000000
     22253      1771  TIP3      OH2            30.4672310278       47.8677183913       83.6127263225  TIP3      1635            0.0000000000
     22254      1771  TIP3      H1             31.4013784113       47.6950392762       83.8309995356  TIP3      1635            0.0000000000
     22255      1771  TIP3      H2             29.9842472642       47.6046727562       84.4181109559  TIP3      1635            0.0000000000
     22256      1772  TIP3      OH2            26.1209123219       42.8143235063       80.8792657410  TIP3      1636            0.0000000000
     22257      1772  TIP3      H1             26.0499546077       42.1234085976       80.1868788477  TIP3      1636            0.0000000000
     22258      1772  TIP3      H2             25.9606903894       43.6648188141       80.3996354183  TIP3      1636            0.0000000000
     22259      1773  TIP3      OH2            26.3661131803       40.8499008223       78.9372051692  TIP3      1637            0.0000000000
     22260      1773  TIP3      H1             26.9980474594       41.3307070759       78.3594107100  TIP3      1637            0.0000000000
     22261      1773  TIP3      H2             25.5449737638       40.9769237541       78.4122054461  TIP3      1637            0.0000000000
     22262      1774  TIP3      OH2            27.0222396538       46.6112685441       78.4653099932  TIP3      1638            0.0000000000
     22263      1774  TIP3      H1             27.8670157931       47.0690884511       78.6388581812  TIP3      1638            0.0000000000
     22264      1774  TIP3      H2             26.4786018136       47.3515541260       78.1233351900  TIP3      1638            0.0000000000
     22265      1775  TIP3      OH2            31.7810782658       43.8562573034       84.2842245946  TIP3      1639            0.0000000000
     22266      1775  TIP3      H1             32.0449740194       43.0580918999       83.7868334783  TIP3      1639            0.0000000000
     22267      1775  TIP3      H2             32.5606064583       44.4251637899       84.1770533067  TIP3      1639            0.0000000000
     22268      1776  TIP3      OH2            33.1154648817       47.1566592033       82.9650183034  TIP3      1640            0.0000000000
     22269      1776  TIP3      H1             32.5941838936       47.6631603995       82.3019055922  TIP3      1640            0.0000000000
     22270      1776  TIP3      H2             33.9385730526       46.9845565113       82.4686646254  TIP3      1640            0.0000000000
     22271      1777  TIP3      OH2            24.2824287411       43.4765681755       83.2873423753  TIP3      1641            0.0000000000
     22272      1777  TIP3      H1             23.5229217651       43.0442179886       82.8414574712  TIP3      1641            0.0000000000
     22273      1777  TIP3      H2             24.9162324721       43.6083786833       82.5598486404  TIP3      1641            0.0000000000
     22274      1778  TIP3      OH2            26.9428927966       38.1864302775       78.9287717513  TIP3      1642            0.0000000000
     22275      1778  TIP3      H1             26.6540413507       39.1223552281       78.9787805654  TIP3      1642            0.0000000000
     22276      1778  TIP3      H2             26.1028121209       37.7441587900       78.7231900933  TIP3      1642            0.0000000000
     22277      1779  TIP3      OH2            27.8448087615       42.5064349408       82.9931514429  TIP3      1643            0.0000000000
     22278      1779  TIP3      H1             27.2317163473       42.2875326557       83.7089052167  TIP3      1643            0.0000000000
     22279      1779  TIP3      H2             27.2563323103       42.4696838684       82.2026305966  TIP3      1643            0.0000000000
     22280      1780  TIP3      OH2            30.3249421786       41.7974329302       82.3224243761  TIP3      1644            0.0000000000
     22281      1780  TIP3      H1             29.3873488322       41.8411501675       82.6158609523  TIP3      1644            0.0000000000
     22282      1780  TIP3      H2             30.7499453951       41.3267056180       83.0752618028  TIP3      1644            0.0000000000
     22283      1781  TIP3      OH2            32.1204258696       40.8533706391       84.1187083176  TIP3      1645            0.0000000000
     22284      1781  TIP3      H1             32.3565660319       39.9003421818       84.0429583744  TIP3      1645            0.0000000000
     22285      1781  TIP3      H2             32.0916166854       40.9871778143       85.0822117496  TIP3      1645            0.0000000000
     22286      1782  TIP3      OH2            22.0901844757       41.4414025360       83.1037424074  TIP3      1646            0.0000000000
     22287      1782  TIP3      H1             21.8259200388       40.6190270340       82.6341187510  TIP3      1646            0.0000000000
     22288      1782  TIP3      H2             21.9389830105       41.2219383275       84.0560987581  TIP3      1646            0.0000000000
     22289      1783  TIP3      OH2            26.7285153928       37.7160405566       82.3311832951  TIP3      1647            0.0000000000
     22290      1783  TIP3      H1             27.3863077221       37.0088963888       82.5176985711  TIP3      1647            0.0000000000
     22291      1783  TIP3      H2             26.9549497407       37.8309114790       81.3990339019  TIP3      1647            0.0000000000
     22292      1784  TIP3      OH2            26.6357609917       39.0171019596       84.6436793583  TIP3      1648            0.0000000000
     22293      1784  TIP3      H1             26.7663061446       38.5327614965       83.7837060034  TIP3      1648            0.0000000000
     22294      1784  TIP3      H2             26.2559221770       39.8642957281       84.3323684770  TIP3      1648            0.0000000000
     22295      1785  TIP3      OH2            26.5745856980       55.0875857372       67.6261684025  TIP3      1649            0.0000000000
     22296      1785  TIP3      H1             26.8680127682       55.9333789482       67.9795027660  TIP3      1649            0.0000000000
     22297      1785  TIP3      H2             26.7345236025       55.2072330011       66.6809389591  TIP3      1649            0.0000000000
     22298      1786  TIP3      OH2            20.4746253564       50.8764173048       66.8009222007  TIP3      1650            0.0000000000
     22299      1786  TIP3      H1             21.0458891773       50.3161778801       66.2410212748  TIP3      1650            0.0000000000
     22300      1786  TIP3      H2             20.5347137790       51.7209536896       66.3346833427  TIP3      1650            0.0000000000
     22301      1787  TIP3      OH2            18.9162061450       56.0694811422       72.0189077577  TIP3      1651            0.0000000000
     22302      1787  TIP3      H1             18.4738239112       55.6478549902       71.2425612336  TIP3      1651            0.0000000000
     22303      1787  TIP3      H2             19.1562037870       55.2942810449       72.5610244482  TIP3      1651            0.0000000000
     22304      1788  TIP3      OH2            19.6277934836       53.9567765887       73.7182775490  TIP3      1652            0.0000000000
     22305      1788  TIP3      H1             18.8201411156       53.4579360219       73.9235546380  TIP3      1652            0.0000000000
     22306      1788  TIP3      H2             20.0213523658       54.0335378823       74.6087406419  TIP3      1652            0.0000000000
     22307      1789  TIP3      OH2            37.2488787925       54.2626732232       76.3901632736  TIP3      1653            0.0000000000
     22308      1789  TIP3      H1             37.6079003716       54.8085372381       77.1087970790  TIP3      1653            0.0000000000
     22309      1789  TIP3      H2             37.0838328928       54.9732706965       75.7392694632  TIP3      1653            0.0000000000
     22310      1790  TIP3      OH2            36.8350071147       54.6163170745       79.2485772084  TIP3      1654            0.0000000000
     22311      1790  TIP3      H1             36.5841407789       53.7701324018       78.7987945515  TIP3      1654            0.0000000000
     22312      1790  TIP3      H2             37.0986951717       54.2520258266       80.1151002821  TIP3      1654            0.0000000000
     22313      1791  TIP3      OH2            35.6808885536       50.3991451562       84.4581890361  TIP3      1655            0.0000000000
     22314      1791  TIP3      H1             34.7986757840       50.6458102426       84.7953127139  TIP3      1655            0.0000000000
     22315      1791  TIP3      H2             36.2316485950       51.1866854753       84.6895461031  TIP3      1655            0.0000000000
     22316      1792  TIP3      OH2            37.5732488222       46.9875658972       72.1490047092  TIP3      1656            0.0000000000
     22317      1792  TIP3      H1             36.6960666669       46.6775781931       71.8837681902  TIP3      1656            0.0000000000
     22318      1792  TIP3      H2             37.5420022074       46.9743768594       73.1128414382  TIP3      1656            0.0000000000
     22319      1793  TIP3      OH2            37.0471945328       49.3878919071       75.7041793419  TIP3      1657            0.0000000000
     22320      1793  TIP3      H1             37.7966882300       48.7720413413       75.8692211930  TIP3      1657            0.0000000000
     22321      1793  TIP3      H2             37.5093650259       50.2422289805       75.5633543428  TIP3      1657            0.0000000000
     22322      1794  TIP3      OH2            35.5064793158       52.2694480664       78.6964818533  TIP3      1658            0.0000000000
     22323      1794  TIP3      H1             34.7907639760       52.7597407814       79.1320373587  TIP3      1658            0.0000000000
     22324      1794  TIP3      H2             35.0836730121       52.0166022572       77.8466212624  TIP3      1658            0.0000000000
     22325      1795  TIP3      OH2            36.7343378166       47.0792761611       68.8838941819  TIP3      1659            0.0000000000
     22326      1795  TIP3      H1             37.1192826419       47.4882082788       68.0685548224  TIP3      1659            0.0000000000
     22327      1795  TIP3      H2             37.0743073629       47.6985994902       69.5378012782  TIP3      1659            0.0000000000
     22328      1796  TIP3      OH2            35.1690201105       44.9620295738       72.1162356043  TIP3      1660            0.0000000000
     22329      1796  TIP3      H1             34.6695408603       44.1308855900       72.1348221374  TIP3      1660            0.0000000000
     22330      1796  TIP3      H2             34.9476228088       45.3162236001       73.0161810441  TIP3      1660            0.0000000000
     22331      1797  TIP3      OH2            19.8767362685       47.3761411382       76.3181280029  TIP3      1661            0.0000000000
     22332      1797  TIP3      H1             19.7597290668       47.0559752594       75.3976981237  TIP3      1661            0.0000000000
     22333      1797  TIP3      H2             20.8039228465       47.0818957656       76.4803127887  TIP3      1661            0.0000000000
     22334      1798  TIP3      OH2            36.1072443621       47.2159812552       81.8578840108  TIP3      1662            0.0000000000
     22335      1798  TIP3      H1             36.5371093163       46.3530558599       82.0231247995  TIP3      1662            0.0000000000
     22336      1798  TIP3      H2             36.8607879034       47.8207360768       81.7185501217  TIP3      1662            0.0000000000
     22337      1799  TIP3      OH2            37.3441940782       44.7527945919       83.2937695458  TIP3      1663            0.0000000000
     22338      1799  TIP3      H1             36.5456949312       44.3119576986       82.9391867524  TIP3      1663            0.0000000000
     22339      1799  TIP3      H2             38.0603435205       44.2392737677       82.8527495210  TIP3      1663            0.0000000000
     22340      1800  TIP3      OH2            34.0372473078       42.3120986917       71.2105001518  TIP3      1664            0.0000000000
     22341      1800  TIP3      H1             34.2749293752       41.3606375226       71.2148933122  TIP3      1664            0.0000000000
     22342      1800  TIP3      H2             34.8444331368       42.6855791694       70.8431420150  TIP3      1664            0.0000000000
     22343      1801  TIP3      OH2            35.5738760784       43.4819450082       75.8129583409  TIP3      1665            0.0000000000
     22344      1801  TIP3      H1             36.5686225614       43.5744146389       75.8430707043  TIP3      1665            0.0000000000
     22345      1801  TIP3      H2             35.3550066572       43.4289247587       76.7550311632  TIP3      1665            0.0000000000
     22346      1802  TIP3      OH2            35.6898905163       44.2355938304       78.6212377157  TIP3      1666            0.0000000000
     22347      1802  TIP3      H1             34.7605158743       44.4968932677       78.6263688647  TIP3      1666            0.0000000000
     22348      1802  TIP3      H2             36.1368247609       45.1013482776       78.5113243434  TIP3      1666            0.0000000000
     22349      1803  TIP3      OH2            19.7000985686       42.4793588831       82.7149605356  TIP3      1667            0.0000000000
     22350      1803  TIP3      H1             20.6406174925       42.2304298788       82.8475579988  TIP3      1667            0.0000000000
     22351      1803  TIP3      H2             19.2708889209       41.6135837880       82.5745539857  TIP3      1667            0.0000000000
     22352      1804  TIP3      OH2            38.4599071504       38.9236385037       84.1718899204  TIP3      1668            0.0000000000
     22353      1804  TIP3      H1             37.5503013121       38.6011827723       83.9675407412  TIP3      1668            0.0000000000
     22354      1804  TIP3      H2             38.6428451097       39.4894547429       83.3967087907  TIP3      1668            0.0000000000
     22355      1805  TIP3      OH2            34.9571439666       39.7776780196       70.6537288002  TIP3      1669            0.0000000000
     22356      1805  TIP3      H1             35.3169490486       39.5752689048       71.5490627355  TIP3      1669            0.0000000000
     22357      1805  TIP3      H2             34.0475948226       39.4191238253       70.6513968531  TIP3      1669            0.0000000000
     22358      1806  TIP3      OH2            20.9498868671       40.8821102455       75.7161684580  TIP3      1670            0.0000000000
     22359      1806  TIP3      H1             21.2866706519       39.9586735317       75.7525593565  TIP3      1670            0.0000000000
     22360      1806  TIP3      H2             21.7670363822       41.4106386870       75.7550518775  TIP3      1670            0.0000000000
     22361      1807  TIP3      OH2            19.4274734556       43.7926281516       76.3424787277  TIP3      1671            0.0000000000
     22362      1807  TIP3      H1             19.8766222416       43.2462112127       75.6883657773  TIP3      1671            0.0000000000
     22363      1807  TIP3      H2             19.9897485349       44.5784263803       76.3798852346  TIP3      1671            0.0000000000
     22364      1808  TIP3      OH2            37.4991842817       40.7059138439       82.2143770093  TIP3      1672            0.0000000000
     22365      1808  TIP3      H1             36.6886367935       40.8687125801       82.7279832127  TIP3      1672            0.0000000000
     22366      1808  TIP3      H2             37.1252000171       40.0653219016       81.5804613963  TIP3      1672            0.0000000000
     22367      1809  TIP3      OH2            19.4482486429       39.8488039377       70.0072935258  TIP3      1673            0.0000000000
     22368      1809  TIP3      H1             18.6316832507       40.2230445963       70.3783000122  TIP3      1673            0.0000000000
     22369      1809  TIP3      H2             19.6517927836       40.5196295905       69.3208023044  TIP3      1673            0.0000000000
     22370      1810  TIP3      OH2            34.0295800242       55.1414642538       71.5151657214  TIP3      1674            0.0000000000
     22371      1810  TIP3      H1             34.8974659331       54.8483022424       71.1597268196  TIP3      1674            0.0000000000
     22372      1810  TIP3      H2             34.2980216952       55.5883169480       72.3478771380  TIP3      1674            0.0000000000
     22373      1811  TIP3      OH2            19.2547427063       38.8021974732       78.5196558278  TIP3      1675            0.0000000000
     22374      1811  TIP3      H1             18.5650153094       38.4861063948       79.1410707424  TIP3      1675            0.0000000000
     22375      1811  TIP3      H2             19.0107529286       39.7305288362       78.3730281942  TIP3      1675            0.0000000000
     22376      1812  TIP3      OH2            21.5376596959       51.7599283840       82.4266353991  TIP3      1676            0.0000000000
     22377      1812  TIP3      H1             20.5924108226       51.7469299371       82.1967363631  TIP3      1676            0.0000000000
     22378      1812  TIP3      H2             21.5153497418       51.6274073236       83.3741378092  TIP3      1676            0.0000000000
     22379      1813  TIP3      OH2            24.6024322648       53.6459332760       79.5856092009  TIP3      1677            0.0000000000
     22380      1813  TIP3      H1             24.5990560947       54.5088456559       79.1216136661  TIP3      1677            0.0000000000
     22381      1813  TIP3      H2             25.4995031340       53.3387515530       79.3340570194  TIP3      1677            0.0000000000
     22382      1814  TIP3      OH2            28.5205229783       54.6880209981       81.9209056430  TIP3      1678            0.0000000000
     22383      1814  TIP3      H1             28.6442784055       54.4472537755       82.8619649647  TIP3      1678            0.0000000000
     22384      1814  TIP3      H2             29.3847177443       55.0896636870       81.7107036231  TIP3      1678            0.0000000000
     22385      1815  TIP3      OH2            30.9203087869       56.1248139614       81.4994451646  TIP3      1679            0.0000000000
     22386      1815  TIP3      H1             31.6615591657       55.6169354642       81.1390940851  TIP3      1679            0.0000000000
     22387      1815  TIP3      H2             31.2923110703       56.4256682458       82.3630339745  TIP3      1679            0.0000000000
     22388      1816  TIP3      OH2            36.3263363340       38.4758443890       80.4502169832  TIP3      1680            0.0000000000
     22389      1816  TIP3      H1             35.5152052672       38.8006859311       80.0371693199  TIP3      1680            0.0000000000
     22390      1816  TIP3      H2             36.4087410998       37.5879833136       80.0232950764  TIP3      1680            0.0000000000
     22391      1817  TIP3      OH2            21.8532800569       56.1345529544       78.8407298208  TIP3      1681            0.0000000000
     22392      1817  TIP3      H1             20.9827276846       56.5282328529       78.5834286305  TIP3      1681            0.0000000000
     22393      1817  TIP3      H2             21.9136732649       56.4065382109       79.7674097667  TIP3      1681            0.0000000000
     22394      1818  TIP3      OH2            24.4627769101       55.9994790027       77.9638067084  TIP3      1682            0.0000000000
     22395      1818  TIP3      H1             23.4870646418       56.0758083542       78.0904214474  TIP3      1682            0.0000000000
     22396      1818  TIP3      H2             24.6224862745       56.6837453388       77.2731719939  TIP3      1682            0.0000000000
     22397      1819  TIP3      OH2            28.8714273255       55.6998578368       77.2036611547  TIP3      1683            0.0000000000
     22398      1819  TIP3      H1             28.2344498254       56.3492184137       76.8629264865  TIP3      1683            0.0000000000
     22399      1819  TIP3      H2             29.2003170156       56.1798570856       77.9948470971  TIP3      1683            0.0000000000
     22400      1820  TIP3      OH2            30.9825871803       54.3264636577       78.6698049413  TIP3      1684            0.0000000000
     22401      1820  TIP3      H1             30.4988694068       54.6283777964       77.8789512446  TIP3      1684            0.0000000000
     22402      1820  TIP3      H2             31.7860536758       54.8901858002       78.5604515703  TIP3      1684            0.0000000000
     22403      1821  TIP3      OH2            33.1868500348       56.0320778730       78.3950869896  TIP3      1685            0.0000000000
     22404      1821  TIP3      H1             33.5941367516       56.9166002637       78.4256090735  TIP3      1685            0.0000000000
     22405      1821  TIP3      H2             33.6220816842       55.6657215354       77.5934656083  TIP3      1685            0.0000000000
     22406      1822  TIP3      OH2            21.3332083741       54.8130641566       76.0026778793  TIP3      1686            0.0000000000
     22407      1822  TIP3      H1             21.1056887940       54.3428769658       76.8301616285  TIP3      1686            0.0000000000
     22408      1822  TIP3      H2             22.2019821793       54.3989869263       75.7851723240  TIP3      1686            0.0000000000
     22409      1823  TIP3      OH2            23.6146463549       53.6679100610       75.1179321726  TIP3      1687            0.0000000000
     22410      1823  TIP3      H1             23.6524776139       52.6943845028       75.1750721627  TIP3      1687            0.0000000000
     22411      1823  TIP3      H2             24.5695497182       53.8595592067       75.2286936344  TIP3      1687            0.0000000000
     22412      1824  TIP3      OH2            26.3009096858       54.1923519859       75.6228257701  TIP3      1688            0.0000000000
     22413      1824  TIP3      H1             26.7782326436       53.3477900469       75.6791902840  TIP3      1688            0.0000000000
     22414      1824  TIP3      H2             26.2720615306       54.4859949093       76.5568299859  TIP3      1688            0.0000000000
     22415      1825  TIP3      OH2            28.8858826412       39.4268796338       74.8231408959  TIP3      1689            0.0000000000
     22416      1825  TIP3      H1             28.1471354669       38.8393558282       75.0977232519  TIP3      1689            0.0000000000
     22417      1825  TIP3      H2             29.4532243360       38.7792833738       74.3917417912  TIP3      1689            0.0000000000
     22418      1826  TIP3      OH2            34.8741139176       37.6674213659       74.7017528581  TIP3      1690            0.0000000000
     22419      1826  TIP3      H1             35.4169937827       38.3276451960       74.2029730334  TIP3      1690            0.0000000000
     22420      1826  TIP3      H2             33.9783057431       38.0403937649       74.5405426289  TIP3      1690            0.0000000000
     22421      1827  TIP3      OH2            36.2178793173       39.1074569437       72.9049850829  TIP3      1691            0.0000000000
     22422      1827  TIP3      H1             36.9334388345       38.5005242467       72.5930153360  TIP3      1691            0.0000000000
     22423      1827  TIP3      H2             36.7538589894       39.9092921006       73.1336717660  TIP3      1691            0.0000000000
     22424      1828  TIP3      OH2            22.0277135894       38.2629521835       72.6586239158  TIP3      1692            0.0000000000
     22425      1828  TIP3      H1             21.1470243752       38.4121964396       72.2552234611  TIP3      1692            0.0000000000
     22426      1828  TIP3      H2             22.2301536254       37.3274993746       72.4156926242  TIP3      1692            0.0000000000
     22427      1829  TIP3      OH2            20.8891032164       38.0553888041       68.0973825050  TIP3      1693            0.0000000000
     22428      1829  TIP3      H1             21.6776228196       38.4990389315       67.7198571347  TIP3      1693            0.0000000000
     22429      1829  TIP3      H2             20.5642772949       38.7195876062       68.7408201901  TIP3      1693            0.0000000000
     22430      1830  TIP3      OH2            26.4611197315       37.9284582718       72.4811923497  TIP3      1694            0.0000000000
     22431      1830  TIP3      H1             27.3767561400       38.1095702570       72.2241167200  TIP3      1694            0.0000000000
     22432      1830  TIP3      H2             26.1785608767       38.7873246779       72.8176934890  TIP3      1694            0.0000000000
     22433      1831  TIP3      OH2            32.3053072950       38.3761207326       73.7658184910  TIP3      1695            0.0000000000
     22434      1831  TIP3      H1             31.8069435617       38.3364595755       72.9441378536  TIP3      1695            0.0000000000
     22435      1831  TIP3      H2             31.8861484432       37.6139342017       74.2279854543  TIP3      1695            0.0000000000
     22436      1832  TIP3      OH2            32.5482740588       38.8348456896       69.6902034407  TIP3      1696            0.0000000000
     22437      1832  TIP3      H1             31.8978774138       38.8512403341       68.9710318945  TIP3      1696            0.0000000000
     22438      1832  TIP3      H2             32.5004960661       37.8716043775       69.9097938692  TIP3      1696            0.0000000000
     22439      1833  TIP3      OH2            20.7093906016       54.2955023252       69.0732292379  TIP3      1697            0.0000000000
     22440      1833  TIP3      H1             20.2226089328       54.2796603305       68.2250086360  TIP3      1697            0.0000000000
     22441      1833  TIP3      H2             21.1324025112       55.1683132272       68.9532770066  TIP3      1697            0.0000000000
     22442      1834  TIP3      OH2            22.8357889711       39.6883141158       66.8870806841  TIP3      1698            0.0000000000
     22443      1834  TIP3      H1             23.3753962104       39.3980620319       66.1441081094  TIP3      1698            0.0000000000
     22444      1834  TIP3      H2             23.5639010465       40.0699211332       67.4183166571  TIP3      1698            0.0000000000
     22445      1835  TIP3      OH2            27.3831434104       40.0590333229       69.6573333366  TIP3      1699            0.0000000000
     22446      1835  TIP3      H1             28.0002570811       39.8401657381       70.3732100569  TIP3      1699            0.0000000000
     22447      1835  TIP3      H2             27.6965434454       40.9437863071       69.4327773873  TIP3      1699            0.0000000000
     22448      1836  TIP3      OH2            36.2075103838       54.3030150998       70.3900532980  TIP3      1700            0.0000000000
     22449      1836  TIP3      H1             35.9359902293       53.5461264102       69.8111623448  TIP3      1700            0.0000000000
     22450      1836  TIP3      H2             36.2962139999       55.0247381877       69.7255602079  TIP3      1700            0.0000000000
     22451      1837  TIP3      OH2            21.5822096875       39.0353551078       81.9332041778  TIP3      1701            0.0000000000
     22452      1837  TIP3      H1             21.0380366841       38.2277259314       81.9190746477  TIP3      1701            0.0000000000
     22453      1837  TIP3      H2             22.2776744440       38.7991572519       82.5813126544  TIP3      1701            0.0000000000
     22454      1838  TIP3      OH2            23.6814047277       38.2523706473       83.8541918132  TIP3      1702            0.0000000000
     22455      1838  TIP3      H1             24.5780111848       38.3035313199       83.4736883743  TIP3      1702            0.0000000000
     22456      1838  TIP3      H2             23.6989418054       37.3012686363       84.0898114614  TIP3      1702            0.0000000000
     22457      1839  TIP3      OH2            32.2461110981       37.8823304268       83.7442495508  TIP3      1703            0.0000000000
     22458      1839  TIP3      H1             31.9146082020       36.9664673547       83.5958324208  TIP3      1703            0.0000000000
     22459      1839  TIP3      H2             33.2053332457       37.7445103381       83.7725782172  TIP3      1703            0.0000000000
     22460      1840  TIP3      OH2            35.4815150695       53.6078459002       82.0864090442  TIP3      1704            0.0000000000
     22461      1840  TIP3      H1             34.8379583433       53.6878283552       81.3491819959  TIP3      1704            0.0000000000
     22462      1840  TIP3      H2             35.2882221022       54.4229540450       82.5714998565  TIP3      1704            0.0000000000
     22463      1841  TIP3      OH2            50.1956671000       47.7688552228       72.4742136415  TIP3      1705            0.0000000000
     22464      1841  TIP3      H1             50.2933265045       48.0560132645       73.4068446538  TIP3      1705            0.0000000000
     22465      1841  TIP3      H2             49.9399616900       48.6356389084       72.0799921166  TIP3      1705            0.0000000000
     22466      1842  TIP3      OH2            48.5124988539       45.7239993726       75.1531290955  TIP3      1706            0.0000000000
     22467      1842  TIP3      H1             48.6542611236       45.7182215389       76.1205165688  TIP3      1706            0.0000000000
     22468      1842  TIP3      H2             47.9369606653       44.9319965278       75.0215323294  TIP3      1706            0.0000000000
     22469      1843  TIP3      OH2            40.9430781786       46.3746290753       77.0896119308  TIP3      1707            0.0000000000
     22470      1843  TIP3      H1             40.8551874798       45.6973419767       77.7755432453  TIP3      1707            0.0000000000
     22471      1843  TIP3      H2             41.7356560571       46.8286408463       77.4339293357  TIP3      1707            0.0000000000
     22472      1844  TIP3      OH2            51.9975780116       49.3498388938       74.2629884744  TIP3      1708            0.0000000000
     22473      1844  TIP3      H1             51.0855229358       49.6637451428       74.4323923816  TIP3      1708            0.0000000000
     22474      1844  TIP3      H2             52.5202801502       50.0749605380       74.6618176707  TIP3      1708            0.0000000000
     22475      1845  TIP3      OH2            42.4690835479       51.0240681511       76.2108456269  TIP3      1709            0.0000000000
     22476      1845  TIP3      H1             42.0158663663       50.2150856637       75.9136628170  TIP3      1709            0.0000000000
     22477      1845  TIP3      H2             43.3468044165       50.8149111793       75.7915718814  TIP3      1709            0.0000000000
     22478      1846  TIP3      OH2            38.9028263624       44.2420173180       71.1328600688  TIP3      1710            0.0000000000
     22479      1846  TIP3      H1             38.5614836677       45.1481271470       70.9978067219  TIP3      1710            0.0000000000
     22480      1846  TIP3      H2             38.0939981652       43.7938824259       71.4107435814  TIP3      1710            0.0000000000
     22481      1847  TIP3      OH2            40.0253559141       46.7062547894       73.8885653654  TIP3      1711            0.0000000000
     22482      1847  TIP3      H1             40.0630452309       45.7255567860       74.0024685187  TIP3      1711            0.0000000000
     22483      1847  TIP3      H2             39.8834077520       46.8504783711       72.9450061198  TIP3      1711            0.0000000000
     22484      1848  TIP3      OH2            49.7395554326       54.9487417145       74.0356612363  TIP3      1712            0.0000000000
     22485      1848  TIP3      H1             50.1774292006       54.3038824728       73.4463213926  TIP3      1712            0.0000000000
     22486      1848  TIP3      H2             49.2248058837       54.3439114736       74.5872822169  TIP3      1712            0.0000000000
     22487      1849  TIP3      OH2            46.6303748269       49.6400916030       76.9226450744  TIP3      1713            0.0000000000
     22488      1849  TIP3      H1             47.2156034652       49.3396361955       76.1805030683  TIP3      1713            0.0000000000
     22489      1849  TIP3      H2             47.3132957469       50.0542707634       77.4839230375  TIP3      1713            0.0000000000
     22490      1850  TIP3      OH2            56.0969157792       40.8694393617       76.2577658994  TIP3      1714            0.0000000000
     22491      1850  TIP3      H1             55.9539247031       41.2240480584       77.1629084522  TIP3      1714            0.0000000000
     22492      1850  TIP3      H2             57.0864430851       40.8482021691       76.2161244437  TIP3      1714            0.0000000000
     22493      1851  TIP3      OH2            50.8323015633       43.7155337940       76.7242517694  TIP3      1715            0.0000000000
     22494      1851  TIP3      H1             50.6601017734       42.7691197596       76.8457023031  TIP3      1715            0.0000000000
     22495      1851  TIP3      H2             50.6939722184       43.8254381157       75.7561541756  TIP3      1715            0.0000000000
     22496      1852  TIP3      OH2            43.5660530209       41.2055610325       73.3795376060  TIP3      1716            0.0000000000
     22497      1852  TIP3      H1             43.5708218341       42.1234396388       73.0313638649  TIP3      1716            0.0000000000
     22498      1852  TIP3      H2             43.0665111134       40.7376910875       72.6774073060  TIP3      1716            0.0000000000
     22499      1853  TIP3      OH2            51.3719351070       41.5697760959       71.9015499727  TIP3      1717            0.0000000000
     22500      1853  TIP3      H1             51.4238814877       41.3091826027       72.8406390425  TIP3      1717            0.0000000000
     22501      1853  TIP3      H2             51.0583874657       42.4886048548       71.9566192434  TIP3      1717            0.0000000000
     22502      1854  TIP3      OH2            40.3155942777       44.1163836462       74.5812341978  TIP3      1718            0.0000000000
     22503      1854  TIP3      H1             40.9293991789       43.6878049341       75.2055782720  TIP3      1718            0.0000000000
     22504      1854  TIP3      H2             40.4049693769       43.5028419869       73.8156523967  TIP3      1718            0.0000000000
     22505      1855  TIP3      OH2            44.1443050269       45.5519754772       73.9783649468  TIP3      1719            0.0000000000
     22506      1855  TIP3      H1             44.7354312035       45.0513528922       74.5633852179  TIP3      1719            0.0000000000
     22507      1855  TIP3      H2             43.9759790703       44.9022382189       73.2525511595  TIP3      1719            0.0000000000
     22508      1856  TIP3      OH2            55.5744052437       41.7875754329       78.7757902443  TIP3      1720            0.0000000000
     22509      1856  TIP3      H1             55.0840901263       42.6405177724       78.6861694947  TIP3      1720            0.0000000000
     22510      1856  TIP3      H2             56.0795956909       41.9873527435       79.5803716341  TIP3      1720            0.0000000000
     22511      1857  TIP3      OH2            42.5322586528       40.6315230220       77.7923267481  TIP3      1721            0.0000000000
     22512      1857  TIP3      H1             42.1319392026       41.1893918180       77.0886200090  TIP3      1721            0.0000000000
     22513      1857  TIP3      H2             41.9083827328       40.8138683214       78.5321235341  TIP3      1721            0.0000000000
     22514      1858  TIP3      OH2            49.5249697106       50.1685790551       71.4428277735  TIP3      1722            0.0000000000
     22515      1858  TIP3      H1             50.0950486244       50.8841152293       71.1260978919  TIP3      1722            0.0000000000
     22516      1858  TIP3      H2             48.7008056030       50.7032375767       71.5405294297  TIP3      1722            0.0000000000
     22517      1859  TIP3      OH2            44.4959562500       48.3212020709       77.5471292558  TIP3      1723            0.0000000000
     22518      1859  TIP3      H1             44.0152191057       49.1145634548       77.8628191557  TIP3      1723            0.0000000000
     22519      1859  TIP3      H2             45.2740962728       48.7956316770       77.1699901455  TIP3      1723            0.0000000000
     22520      1860  TIP3      OH2            52.8766152128       41.2799925252       74.7272356721  TIP3      1724            0.0000000000
     22521      1860  TIP3      H1             52.1167202639       40.6765856571       74.8042570411  TIP3      1724            0.0000000000
     22522      1860  TIP3      H2             52.6158451370       42.0178278257       75.3051248885  TIP3      1724            0.0000000000
     22523      1861  TIP3      OH2            42.0859304646       42.4540227354       75.7045770312  TIP3      1725            0.0000000000
     22524      1861  TIP3      H1             42.6555695061       43.0982401876       76.1889043347  TIP3      1725            0.0000000000
     22525      1861  TIP3      H2             42.6460336125       42.1698556367       74.9590702833  TIP3      1725            0.0000000000
     22526      1862  TIP3      OH2            43.3087486887       50.5189687305       78.7329587750  TIP3      1726            0.0000000000
     22527      1862  TIP3      H1             43.0304198204       50.9243162453       77.8816350350  TIP3      1726            0.0000000000
     22528      1862  TIP3      H2             42.4361642342       50.4647990048       79.2039505335  TIP3      1726            0.0000000000
     22529      1863  TIP3      OH2            38.8603554951       50.0560271900       69.6502264244  TIP3      1727            0.0000000000
     22530      1863  TIP3      H1             38.1538350832       49.7177184840       69.0520315585  TIP3      1727            0.0000000000
     22531      1863  TIP3      H2             39.2727971701       50.7489417540       69.1244729015  TIP3      1727            0.0000000000
     22532      1864  TIP3      OH2            52.1941264256       51.9440469185       74.9379642068  TIP3      1728            0.0000000000
     22533      1864  TIP3      H1             51.4159433395       52.0775727439       75.5255721451  TIP3      1728            0.0000000000
     22534      1864  TIP3      H2             52.8737040108       51.7434930737       75.6054799637  TIP3      1728            0.0000000000
     22535      1865  TIP3      OH2            52.7463244060       40.1134102498       77.5577628722  TIP3      1729            0.0000000000
     22536      1865  TIP3      H1             51.8770832844       40.2000617787       77.1183468007  TIP3      1729            0.0000000000
     22537      1865  TIP3      H2             53.3742933595       40.3082015101       76.8433992996  TIP3      1729            0.0000000000
     22538      1866  TIP3      OH2            45.6035132074       37.6911679731       75.6231132758  TIP3      1730            0.0000000000
     22539      1866  TIP3      H1             45.2181044701       36.8261038800       75.8575356843  TIP3      1730            0.0000000000
     22540      1866  TIP3      H2             44.7798501100       38.2397609740       75.6961287277  TIP3      1730            0.0000000000
     22541      1867  TIP3      OH2            51.0604190426       53.3167138179       72.3622244488  TIP3      1731            0.0000000000
     22542      1867  TIP3      H1             51.4013836978       52.5558896157       72.8628706919  TIP3      1731            0.0000000000
     22543      1867  TIP3      H2             51.8579025321       53.9055623778       72.3716827811  TIP3      1731            0.0000000000
     22544      1868  TIP3      OH2            53.1632239923       51.3563561552       71.4291326339  TIP3      1732            0.0000000000
     22545      1868  TIP3      H1             52.8323655354       50.6807495111       70.8008653322  TIP3      1732            0.0000000000
     22546      1868  TIP3      H2             52.8576660514       51.0103595700       72.2847559408  TIP3      1732            0.0000000000
     22547      1869  TIP3      OH2            53.8008434167       49.5834201359       80.1078992162  TIP3      1733            0.0000000000
     22548      1869  TIP3      H1             54.0395276812       48.8772770264       79.4948021080  TIP3      1733            0.0000000000
     22549      1869  TIP3      H2             54.0119758278       50.3747037763       79.5810028626  TIP3      1733            0.0000000000
     22550      1870  TIP3      OH2            48.0934289488       46.2006156087       69.8280599422  TIP3      1734            0.0000000000
     22551      1870  TIP3      H1             47.6365267742       47.0617205372       69.6945719631  TIP3      1734            0.0000000000
     22552      1870  TIP3      H2             48.9646652344       46.3518573704       69.3829033051  TIP3      1734            0.0000000000
     22553      1871  TIP3      OH2            55.8591099361       46.3836493678       78.6255057768  TIP3      1735            0.0000000000
     22554      1871  TIP3      H1             55.0690309511       46.8610299714       78.2774933092  TIP3      1735            0.0000000000
     22555      1871  TIP3      H2             56.4615246397       46.3669715407       77.8494723137  TIP3      1735            0.0000000000
     22556      1872  TIP3      OH2            52.3025741530       47.4080068642       70.8183787137  TIP3      1736            0.0000000000
     22557      1872  TIP3      H1             51.5652610710       47.6576887380       71.4379491026  TIP3      1736            0.0000000000
     22558      1872  TIP3      H2             52.8566666903       46.8504939935       71.4021860673  TIP3      1736            0.0000000000
     22559      1873  TIP3      OH2            52.1574366345       45.6002525773       79.9171560151  TIP3      1737            0.0000000000
     22560      1873  TIP3      H1             52.5005157679       46.5113134732       79.9574742281  TIP3      1737            0.0000000000
     22561      1873  TIP3      H2             51.3924533341       45.7202367186       79.3290953352  TIP3      1737            0.0000000000
     22562      1874  TIP3      OH2            43.5598969088       47.6755464885       72.5241746615  TIP3      1738            0.0000000000
     22563      1874  TIP3      H1             42.7933231413       47.4220124773       71.9721015699  TIP3      1738            0.0000000000
     22564      1874  TIP3      H2             43.7319625316       46.8609992646       73.0468419429  TIP3      1738            0.0000000000
     22565      1875  TIP3      OH2            44.8491680427       50.7423240687       75.1648255772  TIP3      1739            0.0000000000
     22566      1875  TIP3      H1             45.0920320025       50.4929425874       74.2622284349  TIP3      1739            0.0000000000
     22567      1875  TIP3      H2             45.5906971897       50.4107804942       75.7200239271  TIP3      1739            0.0000000000
     22568      1876  TIP3      OH2            43.5645739354       46.0779438800       76.5555046682  TIP3      1740            0.0000000000
     22569      1876  TIP3      H1             43.4933075341       46.2748942012       75.6044815396  TIP3      1740            0.0000000000
     22570      1876  TIP3      H2             43.9995385355       46.8986518622       76.8840325205  TIP3      1740            0.0000000000
     22571      1877  TIP3      OH2            50.4255620216       52.0508269442       76.9026778755  TIP3      1741            0.0000000000
     22572      1877  TIP3      H1             49.8901682119       52.5086455230       77.5642221083  TIP3      1741            0.0000000000
     22573      1877  TIP3      H2             50.1836226241       51.1155398671       77.0754769358  TIP3      1741            0.0000000000
     22574      1878  TIP3      OH2            44.8941033625       50.8571467724       80.8988855151  TIP3      1742            0.0000000000
     22575      1878  TIP3      H1             44.1779970098       51.3229280645       81.3970884944  TIP3      1742            0.0000000000
     22576      1878  TIP3      H2             44.4292350784       50.7072002190       80.0406403947  TIP3      1742            0.0000000000
     22577      1879  TIP3      OH2            50.5468855446       46.6222211402       68.8326573990  TIP3      1743            0.0000000000
     22578      1879  TIP3      H1             51.2994072439       46.9836913840       69.3561260296  TIP3      1743            0.0000000000
     22579      1879  TIP3      H2             50.8510449592       46.7269651708       67.9141562335  TIP3      1743            0.0000000000
     22580      1880  TIP3      OH2            41.7024562562       46.9006185642       79.7145851101  TIP3      1744            0.0000000000
     22581      1880  TIP3      H1             42.0551553096       47.7173307306       80.0968340292  TIP3      1744            0.0000000000
     22582      1880  TIP3      H2             41.1331857349       46.5977756845       80.4451637094  TIP3      1744            0.0000000000
     22583      1881  TIP3      OH2            47.8236484498       52.2188105417       71.3185208492  TIP3      1745            0.0000000000
     22584      1881  TIP3      H1             48.1404026732       52.9564189674       71.8517929715  TIP3      1745            0.0000000000
     22585      1881  TIP3      H2             47.8193450739       52.5907740429       70.4139995278  TIP3      1745            0.0000000000
     22586      1882  TIP3      OH2            43.0342486762       52.4280288748       82.0170721434  TIP3      1746            0.0000000000
     22587      1882  TIP3      H1             42.9798252841       52.9799776692       81.2060416709  TIP3      1746            0.0000000000
     22588      1882  TIP3      H2             42.0809409435       52.2621733001       82.1745667890  TIP3      1746            0.0000000000
     22589      1883  TIP3      OH2            54.4350772134       37.5238985990       68.8004338163  TIP3      1747            0.0000000000
     22590      1883  TIP3      H1             53.5153217114       37.6348346234       69.1240120724  TIP3      1747            0.0000000000
     22591      1883  TIP3      H2             54.7375717449       38.4426462323       68.7283671254  TIP3      1747            0.0000000000
     22592      1884  TIP3      OH2            42.0277133056       46.3302181180       70.6629145246  TIP3      1748            0.0000000000
     22593      1884  TIP3      H1             42.3736089781       47.0331252863       70.0669493501  TIP3      1748            0.0000000000
     22594      1884  TIP3      H2             41.1562800385       46.2256441276       70.2687652835  TIP3      1748            0.0000000000
     22595      1885  TIP3      OH2            56.4016019615       53.6351578754       65.8609592431  TIP3      1749            0.0000000000
     22596      1885  TIP3      H1             56.4622153303       54.3539930447       66.5437917553  TIP3      1749            0.0000000000
     22597      1885  TIP3      H2             57.1440987312       53.0579802523       66.0811013472  TIP3      1749            0.0000000000
     22598      1886  TIP3      OH2            38.8216584068       49.2056972461       79.2096465227  TIP3      1750            0.0000000000
     22599      1886  TIP3      H1             38.4528326316       49.3010144776       78.3183918113  TIP3      1750            0.0000000000
     22600      1886  TIP3      H2             39.0415953737       48.2547944756       79.2504492263  TIP3      1750            0.0000000000
     22601      1887  TIP3      OH2            38.5594695949       51.7290239462       75.6895423408  TIP3      1751            0.0000000000
     22602      1887  TIP3      H1             39.4953869262       51.9628387696       75.7777647648  TIP3      1751            0.0000000000
     22603      1887  TIP3      H2             38.1129045373       52.5415016225       76.0032363926  TIP3      1751            0.0000000000
     22604      1888  TIP3      OH2            56.6899180606       52.6244219820       81.6217063161  TIP3      1752            0.0000000000
     22605      1888  TIP3      H1             56.5806531779       51.6617891889       81.6817205815  TIP3      1752            0.0000000000
     22606      1888  TIP3      H2             55.8415902862       52.9114501275       82.0307040691  TIP3      1752            0.0000000000
     22607      1889  TIP3      OH2            47.3284618018       51.9052256309       80.5400553780  TIP3      1753            0.0000000000
     22608      1889  TIP3      H1             47.6674033672       52.4407166395       81.2818660772  TIP3      1753            0.0000000000
     22609      1889  TIP3      H2             46.4590169198       51.5863706029       80.8754350641  TIP3      1753            0.0000000000
     22610      1890  TIP3      OH2            48.5289181982       55.8483232562       69.7842991075  TIP3      1754            0.0000000000
     22611      1890  TIP3      H1             48.2073193615       56.1315978979       68.9129002609  TIP3      1754            0.0000000000
     22612      1890  TIP3      H2             48.1379395539       56.5260100508       70.3715240015  TIP3      1754            0.0000000000
     22613      1891  TIP3      OH2            41.7664832799       54.4802997950       72.4463041574  TIP3      1755            0.0000000000
     22614      1891  TIP3      H1             41.9377603329       54.2008769773       73.3709632832  TIP3      1755            0.0000000000
     22615      1891  TIP3      H2             41.0942686844       53.8112600804       72.1727142974  TIP3      1755            0.0000000000
     22616      1892  TIP3      OH2            50.8287819648       55.2481287981       67.1000491874  TIP3      1756            0.0000000000
     22617      1892  TIP3      H1             51.1527786036       55.5047090487       66.2044879779  TIP3      1756            0.0000000000
     22618      1892  TIP3      H2             51.6624253928       55.0081949472       67.5203617065  TIP3      1756            0.0000000000
     22619      1893  TIP3      OH2            51.0712387247       55.2328816974       70.1090602929  TIP3      1757            0.0000000000
     22620      1893  TIP3      H1             50.1559837344       55.3511276983       69.7629655848  TIP3      1757            0.0000000000
     22621      1893  TIP3      H2             50.9384987151       54.5073935391       70.7488236916  TIP3      1757            0.0000000000
     22622      1894  TIP3      OH2            53.5015679943       43.9094958880       82.1280706170  TIP3      1758            0.0000000000
     22623      1894  TIP3      H1             52.9635743377       44.3099923793       81.4265328414  TIP3      1758            0.0000000000
     22624      1894  TIP3      H2             53.4787936545       42.9753498648       81.8588244403  TIP3      1758            0.0000000000
     22625      1895  TIP3      OH2            41.0235757483       50.5223699529       80.0522736859  TIP3      1759            0.0000000000
     22626      1895  TIP3      H1             41.1135587063       50.1999962305       80.9793186969  TIP3      1759            0.0000000000
     22627      1895  TIP3      H2             40.1726135418       50.0996276902       79.8010157656  TIP3      1759            0.0000000000
     22628      1896  TIP3      OH2            43.3154700670       38.9223097530       75.9734828637  TIP3      1760            0.0000000000
     22629      1896  TIP3      H1             42.4510646600       39.0135405641       75.5190019038  TIP3      1760            0.0000000000
     22630      1896  TIP3      H2             43.1933317821       39.5641785352       76.7080993193  TIP3      1760            0.0000000000
     22631      1897  TIP3      OH2            48.3779678441       38.6237538803       79.1793867969  TIP3      1761            0.0000000000
     22632      1897  TIP3      H1             48.7371710985       38.2279424709       80.0017068823  TIP3      1761            0.0000000000
     22633      1897  TIP3      H2             47.4096296412       38.5964513511       79.3429369196  TIP3      1761            0.0000000000
     22634      1898  TIP3      OH2            50.4825681305       42.8124491086       80.3072705931  TIP3      1762            0.0000000000
     22635      1898  TIP3      H1             49.9235651081       42.3799132129       81.0024302287  TIP3      1762            0.0000000000
     22636      1898  TIP3      H2             50.7859079999       43.6244484184       80.7349122336  TIP3      1762            0.0000000000
     22637      1899  TIP3      OH2            43.6353546144       43.6827375052       77.5414002268  TIP3      1763            0.0000000000
     22638      1899  TIP3      H1             42.8829873607       43.7717492213       78.1746798932  TIP3      1763            0.0000000000
     22639      1899  TIP3      H2             43.6491922629       44.6032017618       77.1746748654  TIP3      1763            0.0000000000
     22640      1900  TIP3      OH2            43.2598114287       43.6608350614       72.2932704658  TIP3      1764            0.0000000000
     22641      1900  TIP3      H1             42.3133456749       43.8925564389       72.2275821187  TIP3      1764            0.0000000000
     22642      1900  TIP3      H2             43.4844912055       43.4991226901       71.3532587892  TIP3      1764            0.0000000000
     22643      1901  TIP3      OH2            48.6577981604       44.2339673438       71.6165235033  TIP3      1765            0.0000000000
     22644      1901  TIP3      H1             48.2798760960       44.9941994020       71.1063879532  TIP3      1765            0.0000000000
     22645      1901  TIP3      H2             49.4563119851       44.0549950974       71.0656617948  TIP3      1765            0.0000000000
     22646      1902  TIP3      OH2            48.1045626754       44.8142560252       82.1727478389  TIP3      1766            0.0000000000
     22647      1902  TIP3      H1             47.6670709292       43.9943544968       82.4868652492  TIP3      1766            0.0000000000
     22648      1902  TIP3      H2             48.8958252706       44.7828587962       82.7517016485  TIP3      1766            0.0000000000
     22649      1903  TIP3      OH2            50.5666974885       44.3254772672       73.9308097719  TIP3      1767            0.0000000000
     22650      1903  TIP3      H1             50.3796235145       45.2717536700       73.8450922314  TIP3      1767            0.0000000000
     22651      1903  TIP3      H2             49.7376283800       43.9641291735       73.5746220261  TIP3      1767            0.0000000000
     22652      1904  TIP3      OH2            41.2837351110       43.7680696675       78.8710330564  TIP3      1768            0.0000000000
     22653      1904  TIP3      H1             41.2259786869       44.1748350940       79.7440956025  TIP3      1768            0.0000000000
     22654      1904  TIP3      H2             40.8801658928       42.8897970589       79.0300393180  TIP3      1768            0.0000000000
     22655      1905  TIP3      OH2            44.0723475307       41.1801833249       65.9322577145  TIP3      1769            0.0000000000
     22656      1905  TIP3      H1             44.7164422617       40.8560191356       66.5747084429  TIP3      1769            0.0000000000
     22657      1905  TIP3      H2             43.3042488087       41.3435259315       66.4915977171  TIP3      1769            0.0000000000
     22658      1906  TIP3      OH2            37.9762686924       41.0845893904       73.1139672267  TIP3      1770            0.0000000000
     22659      1906  TIP3      H1             38.7864842343       40.9956468447       73.6428057363  TIP3      1770            0.0000000000
     22660      1906  TIP3      H2             38.3114367634       41.0947512730       72.1975500822  TIP3      1770            0.0000000000
     22661      1907  TIP3      OH2            49.3755371383       45.7886950694       78.0211130857  TIP3      1771            0.0000000000
     22662      1907  TIP3      H1             49.9470720322       45.1323338708       77.5653425731  TIP3      1771            0.0000000000
     22663      1907  TIP3      H2             48.7373653808       45.2119382577       78.5039096130  TIP3      1771            0.0000000000
     22664      1908  TIP3      OH2            46.4358091008       41.2379129987       73.4362268407  TIP3      1772            0.0000000000
     22665      1908  TIP3      H1             45.4706665779       41.0446940835       73.5011322615  TIP3      1772            0.0000000000
     22666      1908  TIP3      H2             46.8156351586       40.5932552170       74.0789697383  TIP3      1772            0.0000000000
     22667      1909  TIP3      OH2            40.6746625647       42.5755011804       72.4281363509  TIP3      1773            0.0000000000
     22668      1909  TIP3      H1             40.1867733329       43.0762454794       71.7389507216  TIP3      1773            0.0000000000
     22669      1909  TIP3      H2             40.9456742433       41.7625016674       71.9681244219  TIP3      1773            0.0000000000
     22670      1910  TIP3      OH2            44.0097226910       42.8398594270       69.8022965110  TIP3      1774            0.0000000000
     22671      1910  TIP3      H1             44.9678526759       42.8163924711       70.0435285326  TIP3      1774            0.0000000000
     22672      1910  TIP3      H2             43.9258152848       43.7130137987       69.4011292777  TIP3      1774            0.0000000000
     22673      1911  TIP3      OH2            50.4609311680       40.4456919374       75.9287203675  TIP3      1775            0.0000000000
     22674      1911  TIP3      H1             49.8326086164       40.5595659313       76.6832661186  TIP3      1775            0.0000000000
     22675      1911  TIP3      H2             50.0534933518       39.6932353898       75.4637657927  TIP3      1775            0.0000000000
     22676      1912  TIP3      OH2            53.5198087712       56.4389878993       82.9722723060  TIP3      1776            0.0000000000
     22677      1912  TIP3      H1             53.7902738001       56.4570301316       82.0232403324  TIP3      1776            0.0000000000
     22678      1912  TIP3      H2             54.3821432415       56.5760097742       83.4010671766  TIP3      1776            0.0000000000
     22679      1913  TIP3      OH2            41.3027938060       49.1605007651       82.3679434927  TIP3      1777            0.0000000000
     22680      1913  TIP3      H1             41.9928969912       49.2588117797       83.0570253817  TIP3      1777            0.0000000000
     22681      1913  TIP3      H2             40.5412753572       48.8203893088       82.8890967807  TIP3      1777            0.0000000000
     22682      1914  TIP3      OH2            47.0218905494       43.4847751513       75.0707683234  TIP3      1778            0.0000000000
     22683      1914  TIP3      H1             46.8482901664       42.7156620456       74.4966062776  TIP3      1778            0.0000000000
     22684      1914  TIP3      H2             46.7405858449       43.0767009721       75.9258385378  TIP3      1778            0.0000000000
     22685      1915  TIP3      OH2            41.9743441433       39.8847438121       71.4024056554  TIP3      1779            0.0000000000
     22686      1915  TIP3      H1             41.4037029500       39.2293667311       71.8603724051  TIP3      1779            0.0000000000
     22687      1915  TIP3      H2             42.6007449793       39.2946020252       70.9545608588  TIP3      1779            0.0000000000
     22688      1916  TIP3      OH2            45.8837497785       42.3644005168       77.1653380287  TIP3      1780            0.0000000000
     22689      1916  TIP3      H1             45.0023345144       42.8134904724       77.2095950218  TIP3      1780            0.0000000000
     22690      1916  TIP3      H2             46.4156731858       42.9621745308       77.7143386477  TIP3      1780            0.0000000000
     22691      1917  TIP3      OH2            46.5026728930       48.4395171860       69.6805624071  TIP3      1781            0.0000000000
     22692      1917  TIP3      H1             46.1673655099       48.8903563075       68.8945544007  TIP3      1781            0.0000000000
     22693      1917  TIP3      H2             46.0360093608       48.9462265371       70.3881229670  TIP3      1781            0.0000000000
     22694      1918  TIP3      OH2            53.4936989129       47.4688450312       78.0047131624  TIP3      1782            0.0000000000
     22695      1918  TIP3      H1             53.7925486214       48.3039592463       77.5635856266  TIP3      1782            0.0000000000
     22696      1918  TIP3      H2             52.7615282039       47.2387763583       77.3964755316  TIP3      1782            0.0000000000
     22697      1919  TIP3      OH2            47.4738594970       48.8375510588       80.1596051039  TIP3      1783            0.0000000000
     22698      1919  TIP3      H1             47.8336558562       48.6301802734       81.0317385424  TIP3      1783            0.0000000000
     22699      1919  TIP3      H2             47.2615756896       49.7802500272       80.2465009492  TIP3      1783            0.0000000000
     22700      1920  TIP3      OH2            50.7082793835       44.0978503994       69.8936562912  TIP3      1784            0.0000000000
     22701      1920  TIP3      H1             51.6307548134       43.8155700426       69.7507805164  TIP3      1784            0.0000000000
     22702      1920  TIP3      H2             50.7037573152       44.9746474903       69.4547828552  TIP3      1784            0.0000000000
     22703      1921  TIP3      OH2            42.1920455390       48.3975878282       75.1595169785  TIP3      1785            0.0000000000
     22704      1921  TIP3      H1             42.1236209231       48.3356583336       74.1951421818  TIP3      1785            0.0000000000
     22705      1921  TIP3      H2             41.7856166154       47.5669770889       75.4420863099  TIP3      1785            0.0000000000
     22706      1922  TIP3      OH2            38.4757578018       46.6078150717       80.5484878890  TIP3      1786            0.0000000000
     22707      1922  TIP3      H1             38.5829169138       45.8311493505       81.1148609315  TIP3      1786            0.0000000000
     22708      1922  TIP3      H2             37.8915247123       46.2869512313       79.8371352444  TIP3      1786            0.0000000000
     22709      1923  TIP3      OH2            45.9186417390       46.2801162197       82.0788736662  TIP3      1787            0.0000000000
     22710      1923  TIP3      H1             45.4667708137       45.7073775083       81.4410856928  TIP3      1787            0.0000000000
     22711      1923  TIP3      H2             46.8181998515       45.8732623036       82.0779334907  TIP3      1787            0.0000000000
     22712      1924  TIP3      OH2            50.6943692942       51.6412644576       80.7369277652  TIP3      1788            0.0000000000
     22713      1924  TIP3      H1             49.9716601855       51.8446422688       80.1191804465  TIP3      1788            0.0000000000
     22714      1924  TIP3      H2             50.3589615887       52.0555740282       81.5597112955  TIP3      1788            0.0000000000
     22715      1925  TIP3      OH2            55.8908931103       43.8958385763       68.9115653577  TIP3      1789            0.0000000000
     22716      1925  TIP3      H1             55.0142679536       43.4791393058       69.0343871510  TIP3      1789            0.0000000000
     22717      1925  TIP3      H2             55.6396988313       44.8227753548       68.7789909721  TIP3      1789            0.0000000000
     22718      1926  TIP3      OH2            56.3496838941       49.7690788441       81.4576822621  TIP3      1790            0.0000000000
     22719      1926  TIP3      H1             55.3842471717       49.7898081559       81.2896081564  TIP3      1790            0.0000000000
     22720      1926  TIP3      H2             56.7130163806       49.5983949016       80.5643684784  TIP3      1790            0.0000000000
     22721      1927  TIP3      OH2            54.8890506733       52.5446360932       69.5774652389  TIP3      1791            0.0000000000
     22722      1927  TIP3      H1             54.2607665615       52.1736021162       70.2362927344  TIP3      1791            0.0000000000
     22723      1927  TIP3      H2             54.9252879837       51.8462950311       68.9212178202  TIP3      1791            0.0000000000
     22724      1928  TIP3      OH2            51.7766705562       47.0374790606       75.9504626309  TIP3      1792            0.0000000000
     22725      1928  TIP3      H1             50.8781176964       47.4125078592       75.9326713411  TIP3      1792            0.0000000000
     22726      1928  TIP3      H2             52.2729776113       47.6767582773       75.3984483938  TIP3      1792            0.0000000000
     22727      1929  TIP3      OH2            43.7978074653       51.5427226890       72.5346311249  TIP3      1793            0.0000000000
     22728      1929  TIP3      H1             44.0483551487       52.3988461841       72.1053425606  TIP3      1793            0.0000000000
     22729      1929  TIP3      H2             42.8382953272       51.5084343093       72.3868129098  TIP3      1793            0.0000000000
     22730      1930  TIP3      OH2            45.4691183483       49.4546940509       72.0437012323  TIP3      1794            0.0000000000
     22731      1930  TIP3      H1             45.1050218627       50.3658697910       72.0970193285  TIP3      1794            0.0000000000
     22732      1930  TIP3      H2             44.6351180885       48.9638510905       72.2306428593  TIP3      1794            0.0000000000
     22733      1931  TIP3      OH2            46.1446104219       53.6643682438       78.6656710152  TIP3      1795            0.0000000000
     22734      1931  TIP3      H1             46.8412457327       54.3180746067       78.4461859950  TIP3      1795            0.0000000000
     22735      1931  TIP3      H2             46.5753200494       53.1643997184       79.3912027010  TIP3      1795            0.0000000000
     22736      1932  TIP3      OH2            44.3514878175       54.0357208440       71.5583509599  TIP3      1796            0.0000000000
     22737      1932  TIP3      H1             43.3963517633       54.1963916270       71.6998011248  TIP3      1796            0.0000000000
     22738      1932  TIP3      H2             44.6545543330       54.9620741181       71.6293947049  TIP3      1796            0.0000000000
     22739      1933  TIP3      OH2            49.2193427054       49.7406994171       78.0569973961  TIP3      1797            0.0000000000
     22740      1933  TIP3      H1             48.7678341681       49.2028296951       78.7348464654  TIP3      1797            0.0000000000
     22741      1933  TIP3      H2             49.4368659367       49.0724989580       77.3766554538  TIP3      1797            0.0000000000
     22742      1934  TIP3      OH2            52.4757240895       54.2459843100       80.3155947647  TIP3      1798            0.0000000000
     22743      1934  TIP3      H1             51.7273032425       53.6803282836       80.0498173492  TIP3      1798            0.0000000000
     22744      1934  TIP3      H2             52.5342868821       54.8707982821       79.5641467144  TIP3      1798            0.0000000000
     22745      1935  TIP3      OH2            56.5085805212       55.5212128815       67.7941570469  TIP3      1799            0.0000000000
     22746      1935  TIP3      H1             57.2444180418       56.1163749348       68.0477006156  TIP3      1799            0.0000000000
     22747      1935  TIP3      H2             55.7481405728       56.1311735445       67.8420535024  TIP3      1799            0.0000000000
     22748      1936  TIP3      OH2            40.7262983281       41.2672446738       79.9692272024  TIP3      1800            0.0000000000
     22749      1936  TIP3      H1             40.0277523512       41.7860630557       80.4077262533  TIP3      1800            0.0000000000
     22750      1936  TIP3      H2             40.7354099614       40.4542695871       80.5085491158  TIP3      1800            0.0000000000
     22751      1937  TIP3      OH2            52.9693341322       49.5999335023       69.2927985106  TIP3      1801            0.0000000000
     22752      1937  TIP3      H1             52.7750452875       48.7503666233       69.7393940186  TIP3      1801            0.0000000000
     22753      1937  TIP3      H2             53.9303615631       49.5055491315       69.1294958180  TIP3      1801            0.0000000000
     22754      1938  TIP3      OH2            40.1868872219       53.2244563969       78.0968938082  TIP3      1802            0.0000000000
     22755      1938  TIP3      H1             40.6968174896       52.3996001927       78.1007321717  TIP3      1802            0.0000000000
     22756      1938  TIP3      H2             40.3504211780       53.5385608269       78.9986137262  TIP3      1802            0.0000000000
     22757      1939  TIP3      OH2            44.6626355138       50.8875824087       68.0011857554  TIP3      1803            0.0000000000
     22758      1939  TIP3      H1             45.0902642152       51.7558961127       68.0713474691  TIP3      1803            0.0000000000
     22759      1939  TIP3      H2             43.7357827106       51.1297241338       68.1989040636  TIP3      1803            0.0000000000
     22760      1940  TIP3      OH2            42.3856283544       48.5598838547       68.9977021548  TIP3      1804            0.0000000000
     22761      1940  TIP3      H1             41.4675414926       48.8835509888       68.9999250309  TIP3      1804            0.0000000000
     22762      1940  TIP3      H2             42.7539588194       49.1481243781       68.3123124986  TIP3      1804            0.0000000000
     22763      1941  TIP3      OH2            49.6511226271       40.8775601888       78.4897944798  TIP3      1805            0.0000000000
     22764      1941  TIP3      H1             49.9897574892       41.4073733988       79.2379718871  TIP3      1805            0.0000000000
     22765      1941  TIP3      H2             49.0952828048       40.1930233475       78.9198359979  TIP3      1805            0.0000000000
     22766      1942  TIP3      OH2            49.4392026983       40.5450054354       70.0176930097  TIP3      1806            0.0000000000
     22767      1942  TIP3      H1             49.5400499739       41.4305156977       70.3869351818  TIP3      1806            0.0000000000
     22768      1942  TIP3      H2             50.2122480633       40.1163695962       70.4318975395  TIP3      1806            0.0000000000
     22769      1943  TIP3      OH2            48.0917550560       53.0939330906       68.6423993998  TIP3      1807            0.0000000000
     22770      1943  TIP3      H1             47.1145635561       53.1978881314       68.6336514687  TIP3      1807            0.0000000000
     22771      1943  TIP3      H2             48.3622670024       54.0228078668       68.6015006185  TIP3      1807            0.0000000000
     22772      1944  TIP3      OH2            46.5269868518       42.6390783259       71.1076456762  TIP3      1808            0.0000000000
     22773      1944  TIP3      H1             47.2661983756       43.2527219202       71.3174405360  TIP3      1808            0.0000000000
     22774      1944  TIP3      H2             46.5173951448       42.0590234944       71.9025424561  TIP3      1808            0.0000000000
     22775      1945  TIP3      OH2            48.0887698616       43.9470917954       79.5388094337  TIP3      1809            0.0000000000
     22776      1945  TIP3      H1             48.0342563775       44.2669780444       80.4618173247  TIP3      1809            0.0000000000
     22777      1945  TIP3      H2             48.7791070853       43.2595784374       79.5991156124  TIP3      1809            0.0000000000
     22778      1946  TIP3      OH2            47.9316244480       39.3162763198       71.9511215666  TIP3      1810            0.0000000000
     22779      1946  TIP3      H1             47.3388958278       40.0500454052       72.1820121828  TIP3      1810            0.0000000000
     22780      1946  TIP3      H2             48.3886567889       39.7366147004       71.1943809082  TIP3      1810            0.0000000000
     22781      1947  TIP3      OH2            45.3796004937       53.5799005353       68.8811485275  TIP3      1811            0.0000000000
     22782      1947  TIP3      H1             45.2232464194       54.4465880503       68.4316196732  TIP3      1811            0.0000000000
     22783      1947  TIP3      H2             44.9079129463       53.7378944645       69.7302966191  TIP3      1811            0.0000000000
     22784      1948  TIP3      OH2            43.5910947429       40.2732373759       68.6885215664  TIP3      1812            0.0000000000
     22785      1948  TIP3      H1             43.4563406426       41.1374357869       69.1338458726  TIP3      1812            0.0000000000
     22786      1948  TIP3      H2             44.5596046590       40.1572305496       68.8447655649  TIP3      1812            0.0000000000
     22787      1949  TIP3      OH2            53.6044608484       41.1552396354       80.6839292651  TIP3      1813            0.0000000000
     22788      1949  TIP3      H1             52.7718867553       40.8633204586       80.2978016559  TIP3      1813            0.0000000000
     22789      1949  TIP3      H2             54.1430062703       41.3097507925       79.8913360549  TIP3      1813            0.0000000000
     22790      1950  TIP3      OH2            53.4255774458       45.3908283049       74.4827043232  TIP3      1814            0.0000000000
     22791      1950  TIP3      H1             52.7534970847       45.8690020266       75.0250275042  TIP3      1814            0.0000000000
     22792      1950  TIP3      H2             53.7982610436       44.7696324113       75.1470004221  TIP3      1814            0.0000000000
     22793      1951  TIP3      OH2            41.9863338900       51.0482312478       67.5301491503  TIP3      1815            0.0000000000
     22794      1951  TIP3      H1             41.8989708148       51.9725179990       67.2167175124  TIP3      1815            0.0000000000
     22795      1951  TIP3      H2             42.0916037468       50.5537202296       66.6901215554  TIP3      1815            0.0000000000
     22796      1952  TIP3      OH2            53.6424107612       54.6770576042       76.4809105933  TIP3      1816            0.0000000000
     22797      1952  TIP3      H1             53.8027635311       55.4717868453       75.9288309834  TIP3      1816            0.0000000000
     22798      1952  TIP3      H2             54.1311464253       54.0465281356       75.9413124611  TIP3      1816            0.0000000000
     22799      1953  TIP3      OH2            40.7665845605       38.5295631881       75.2316518137  TIP3      1817            0.0000000000
     22800      1953  TIP3      H1             40.6172818991       38.3685180949       74.2695386846  TIP3      1817            0.0000000000
     22801      1953  TIP3      H2             40.5580895588       37.6363846174       75.5945906530  TIP3      1817            0.0000000000
     22802      1954  TIP3      OH2            40.1398269332       52.5002504993       71.5982198928  TIP3      1818            0.0000000000
     22803      1954  TIP3      H1             39.2038435628       52.4212504297       71.8152811740  TIP3      1818            0.0000000000
     22804      1954  TIP3      H2             40.0502174475       52.7854519978       70.6661482482  TIP3      1818            0.0000000000
     22805      1955  TIP3      OH2            39.0878945765       55.3614563388       82.3725695448  TIP3      1819            0.0000000000
     22806      1955  TIP3      H1             39.8504247322       55.1749091476       82.9676185429  TIP3      1819            0.0000000000
     22807      1955  TIP3      H2             38.6616253545       54.4836840076       82.4240503486  TIP3      1819            0.0000000000
     22808      1956  TIP3      OH2            43.9291973061       54.1593432341       83.9506397330  TIP3      1820            0.0000000000
     22809      1956  TIP3      H1             44.8164294451       53.7709269532       84.0678066565  TIP3      1820            0.0000000000
     22810      1956  TIP3      H2             43.6379079816       53.6729020563       83.1532526541  TIP3      1820            0.0000000000
     22811      1957  TIP3      OH2            50.0939775976       52.9210534055       83.0687772665  TIP3      1821            0.0000000000
     22812      1957  TIP3      H1             49.8445940713       51.9812316397       83.2750181504  TIP3      1821            0.0000000000
     22813      1957  TIP3      H2             51.0046522418       52.9615758805       83.4446802851  TIP3      1821            0.0000000000
     22814      1958  TIP3      OH2            38.8396604156       48.8896403631       83.4475594368  TIP3      1822            0.0000000000
     22815      1958  TIP3      H1             38.3349298045       48.0806829943       83.6328905778  TIP3      1822            0.0000000000
     22816      1958  TIP3      H2             38.3713604127       49.2443107396       82.6577325578  TIP3      1822            0.0000000000
     22817      1959  TIP3      OH2            45.6407883932       48.9821765322       82.8039808696  TIP3      1823            0.0000000000
     22818      1959  TIP3      H1             45.5914359563       49.5666986809       82.0184927848  TIP3      1823            0.0000000000
     22819      1959  TIP3      H2             45.7369022603       48.0860868510       82.4025148943  TIP3      1823            0.0000000000
     22820      1960  TIP3      OH2            51.1989744078       48.8495816081       80.8468223429  TIP3      1824            0.0000000000
     22821      1960  TIP3      H1             52.0563808229       49.3046298175       80.6835957286  TIP3      1824            0.0000000000
     22822      1960  TIP3      H2             50.6221355052       49.6298550609       80.8662010464  TIP3      1824            0.0000000000
     22823      1961  TIP3      OH2            40.5392930869       45.9400080124       83.0600021909  TIP3      1825            0.0000000000
     22824      1961  TIP3      H1             40.7238952761       45.1500856470       83.6007590998  TIP3      1825            0.0000000000
     22825      1961  TIP3      H2             40.7431124852       46.6415566125       83.7074198942  TIP3      1825            0.0000000000
     22826      1962  TIP3      OH2            43.9060405441       45.2380084859       79.9568989066  TIP3      1826            0.0000000000
     22827      1962  TIP3      H1             43.1779273748       45.8677397197       79.7949292130  TIP3      1826            0.0000000000
     22828      1962  TIP3      H2             44.5989515921       45.6003322144       79.3586571216  TIP3      1826            0.0000000000
     22829      1963  TIP3      OH2            49.3061733872       47.9331557146       83.7230348698  TIP3      1827            0.0000000000
     22830      1963  TIP3      H1             49.8476785516       47.3703645459       83.1368045954  TIP3      1827            0.0000000000
     22831      1963  TIP3      H2             48.9223713567       47.2992908300       84.3547189536  TIP3      1827            0.0000000000
     22832      1964  TIP3      OH2            44.8146153105       42.9578357236       80.8885458508  TIP3      1828            0.0000000000
     22833      1964  TIP3      H1             44.8755356601       42.3026074935       80.1581233552  TIP3      1828            0.0000000000
     22834      1964  TIP3      H2             44.5682983008       43.7920653755       80.4068630713  TIP3      1828            0.0000000000
     22835      1965  TIP3      OH2            44.9574886399       40.7348650674       79.1052871550  TIP3      1829            0.0000000000
     22836      1965  TIP3      H1             45.5207215629       41.1542484674       78.4231631444  TIP3      1829            0.0000000000
     22837      1965  TIP3      H2             44.1035768522       40.7277357987       78.6252868829  TIP3      1829            0.0000000000
     22838      1966  TIP3      OH2            46.0103660366       46.5576699752       78.9014457620  TIP3      1830            0.0000000000
     22839      1966  TIP3      H1             46.8972772046       46.9211663600       78.7754190388  TIP3      1830            0.0000000000
     22840      1966  TIP3      H2             45.4841550807       47.3041206931       78.5308285936  TIP3      1830            0.0000000000
     22841      1967  TIP3      OH2            50.1339700349       44.0624780052       83.7870600007  TIP3      1831            0.0000000000
     22842      1967  TIP3      H1             50.1318492632       43.3485836889       84.4682442977  TIP3      1831            0.0000000000
     22843      1967  TIP3      H2             50.9671064894       44.4922252327       84.0148730738  TIP3      1831            0.0000000000
     22844      1968  TIP3      OH2            52.0225649950       47.2195164368       82.8901157355  TIP3      1832            0.0000000000
     22845      1968  TIP3      H1             51.6429045758       47.8022643370       82.1885503491  TIP3      1832            0.0000000000
     22846      1968  TIP3      H2             52.8661715359       46.9526810664       82.4810063348  TIP3      1832            0.0000000000
     22847      1969  TIP3      OH2            43.1577739124       43.2822396818       83.1060285823  TIP3      1833            0.0000000000
     22848      1969  TIP3      H1             42.2856989413       42.9101144856       82.8526000991  TIP3      1833            0.0000000000
     22849      1969  TIP3      H2             43.6843735820       43.1529907012       82.2884875170  TIP3      1833            0.0000000000
     22850      1970  TIP3      OH2            45.6842282224       38.2129557028       78.9114943681  TIP3      1834            0.0000000000
     22851      1970  TIP3      H1             45.3045758642       39.1080429128       79.0610661200  TIP3      1834            0.0000000000
     22852      1970  TIP3      H2             44.8860719730       37.7164221605       78.6499315599  TIP3      1834            0.0000000000
     22853      1971  TIP3      OH2            46.5700288927       42.5470245483       82.9687217165  TIP3      1835            0.0000000000
     22854      1971  TIP3      H1             45.9250958282       42.3361118170       83.6769901250  TIP3      1835            0.0000000000
     22855      1971  TIP3      H2             45.9636563886       42.5773775291       82.1909130415  TIP3      1835            0.0000000000
     22856      1972  TIP3      OH2            48.7722504864       41.4002996443       81.8619179265  TIP3      1836            0.0000000000
     22857      1972  TIP3      H1             47.9184671588       41.6307465906       82.2789688855  TIP3      1836            0.0000000000
     22858      1972  TIP3      H2             49.2682589512       40.9813656831       82.6084655387  TIP3      1836            0.0000000000
     22859      1973  TIP3      OH2            50.3085504646       40.3500721563       83.7930636492  TIP3      1837            0.0000000000
     22860      1973  TIP3      H1             50.5569598459       39.4111733865       83.9432179931  TIP3      1837            0.0000000000
     22861      1973  TIP3      H2             50.5015271292       40.7901830886       84.6451917789  TIP3      1837            0.0000000000
     22862      1974  TIP3      OH2            40.6798505977       41.6652674869       83.0717559672  TIP3      1838            0.0000000000
     22863      1974  TIP3      H1             40.5675500547       40.7275197422       82.8389796773  TIP3      1838            0.0000000000
     22864      1974  TIP3      H2             40.8479208870       41.5967910692       84.0437561231  TIP3      1838            0.0000000000
     22865      1975  TIP3      OH2            45.3294086330       37.8039777581       81.6160410605  TIP3      1839            0.0000000000
     22866      1975  TIP3      H1             45.9336134604       37.0585131545       81.7513222938  TIP3      1839            0.0000000000
     22867      1975  TIP3      H2             45.4134330598       37.9314016156       80.6516194539  TIP3      1839            0.0000000000
     22868      1976  TIP3      OH2            45.4143714999       39.0433247713       84.8462486544  TIP3      1840            0.0000000000
     22869      1976  TIP3      H1             45.4780344727       38.5299874247       84.0242004625  TIP3      1840            0.0000000000
     22870      1976  TIP3      H2             45.2084242945       39.9236316507       84.4702604042  TIP3      1840            0.0000000000
     22871      1977  TIP3      OH2            45.5636400061       56.1563722569       67.9906572071  TIP3      1841            0.0000000000
     22872      1977  TIP3      H1             46.3841458354       55.9721278921       67.4786790245  TIP3      1841            0.0000000000
     22873      1977  TIP3      H2             45.7129312775       57.0917273576       68.2086504506  TIP3      1841            0.0000000000
     22874      1978  TIP3      OH2            37.9684016641       55.8319966531       71.7019443464  TIP3      1842            0.0000000000
     22875      1978  TIP3      H1             37.3350859817       55.1870167610       71.3235138011  TIP3      1842            0.0000000000
     22876      1978  TIP3      H2             38.3389680858       55.2931700857       72.4327619464  TIP3      1842            0.0000000000
     22877      1979  TIP3      OH2            38.5577081433       54.0741818645       73.6875130629  TIP3      1843            0.0000000000
     22878      1979  TIP3      H1             37.8829545572       53.4190425172       73.9224915354  TIP3      1843            0.0000000000
     22879      1979  TIP3      H2             38.9478936563       54.2739474083       74.5657499694  TIP3      1843            0.0000000000
     22880      1980  TIP3      OH2            56.6997266751       55.6010623702       76.2751649635  TIP3      1844            0.0000000000
     22881      1980  TIP3      H1             56.3460375763       55.1791304531       77.0715927657  TIP3      1844            0.0000000000
     22882      1980  TIP3      H2             57.1779090276       56.3602371878       76.6293605303  TIP3      1844            0.0000000000
     22883      1981  TIP3      OH2            55.8076381646       54.5514667039       79.2856119780  TIP3      1845            0.0000000000
     22884      1981  TIP3      H1             55.4378017598       53.7397576117       78.8662241604  TIP3      1845            0.0000000000
     22885      1981  TIP3      H2             56.2510273324       54.1325898657       80.0458542082  TIP3      1845            0.0000000000
     22886      1982  TIP3      OH2            54.4660669746       50.1759603902       84.4844363391  TIP3      1846            0.0000000000
     22887      1982  TIP3      H1             53.5997379664       50.3463831298       84.9131206948  TIP3      1846            0.0000000000
     22888      1982  TIP3      H2             54.8488449824       51.0796771874       84.4628479752  TIP3      1846            0.0000000000
     22889      1983  TIP3      OH2            55.5435028570       48.8322324115       69.4499785964  TIP3      1847            0.0000000000
     22890      1983  TIP3      H1             56.4834155833       49.1238369247       69.4918389443  TIP3      1847            0.0000000000
     22891      1983  TIP3      H2             55.5523501256       48.1831216859       70.1882903902  TIP3      1847            0.0000000000
     22892      1984  TIP3      OH2            55.9513028713       46.7349908296       71.4352385040  TIP3      1848            0.0000000000
     22893      1984  TIP3      H1             55.1708776036       46.2325419474       71.7505710703  TIP3      1848            0.0000000000
     22894      1984  TIP3      H2             56.3729050466       46.9503520114       72.2906488269  TIP3      1848            0.0000000000
     22895      1985  TIP3      OH2            57.1447227150       48.6883194870       75.2065082797  TIP3      1849            0.0000000000
     22896      1985  TIP3      H1             56.4441066417       48.6058580950       75.8825006153  TIP3      1849            0.0000000000
     22897      1985  TIP3      H2             56.7697915302       49.4179885766       74.7001416086  TIP3      1849            0.0000000000
     22898      1986  TIP3      OH2            54.6088254043       52.2484853800       78.8198636101  TIP3      1850            0.0000000000
     22899      1986  TIP3      H1             53.7081108750       52.6076864065       78.7736060196  TIP3      1850            0.0000000000
     22900      1986  TIP3      H2             54.6134289887       51.6365544458       78.0498433935  TIP3      1850            0.0000000000
     22901      1987  TIP3      OH2            53.7289599558       45.1653130852       71.9373300771  TIP3      1851            0.0000000000
     22902      1987  TIP3      H1             52.7863436687       44.9939806926       71.8321166202  TIP3      1851            0.0000000000
     22903      1987  TIP3      H2             53.7466585299       45.1579122939       72.9303348157  TIP3      1851            0.0000000000
     22904      1988  TIP3      OH2            38.8154375641       47.4615637936       76.1907874577  TIP3      1852            0.0000000000
     22905      1988  TIP3      H1             38.9720929456       47.1520957233       75.2690295079  TIP3      1852            0.0000000000
     22906      1988  TIP3      H2             39.6970278366       47.1980815035       76.5492209727  TIP3      1852            0.0000000000
     22907      1989  TIP3      OH2            54.8412168628       46.9194161880       81.7980327092  TIP3      1853            0.0000000000
     22908      1989  TIP3      H1             55.1422903679       45.9998907338       81.6719459615  TIP3      1853            0.0000000000
     22909      1989  TIP3      H2             55.6147869040       47.4086817401       81.4727102535  TIP3      1853            0.0000000000
     22910      1990  TIP3      OH2            56.1207505674       44.2112420428       81.8133430853  TIP3      1854            0.0000000000
     22911      1990  TIP3      H1             55.2213178021       44.0176158431       82.1539121518  TIP3      1854            0.0000000000
     22912      1990  TIP3      H2             56.6604569903       43.6765498816       82.4403685823  TIP3      1854            0.0000000000
     22913      1991  TIP3      OH2            53.4503118850       43.3272868083       70.0236218537  TIP3      1855            0.0000000000
     22914      1991  TIP3      H1             53.5255254998       42.4158503147       70.3856740215  TIP3      1855            0.0000000000
     22915      1991  TIP3      H2             53.8425301350       43.8803950916       70.7329553771  TIP3      1855            0.0000000000
     22916      1992  TIP3      OH2            54.4579762953       43.5288061922       76.0701963021  TIP3      1856            0.0000000000
     22917      1992  TIP3      H1             55.4435461502       43.6251375298       76.1501622436  TIP3      1856            0.0000000000
     22918      1992  TIP3      H2             54.2229750693       43.6535427721       77.0133401300  TIP3      1856            0.0000000000
     22919      1993  TIP3      OH2            54.2780625354       44.1926809336       78.6468275776  TIP3      1857            0.0000000000
     22920      1993  TIP3      H1             53.3852294942       44.4499493061       78.9600201199  TIP3      1857            0.0000000000
     22921      1993  TIP3      H2             54.7155131834       45.0698490407       78.7267683555  TIP3      1857            0.0000000000
     22922      1994  TIP3      OH2            38.8975325244       43.0973014727       81.8787132523  TIP3      1858            0.0000000000
     22923      1994  TIP3      H1             39.7160015892       42.7948628868       82.3399374387  TIP3      1858            0.0000000000
     22924      1994  TIP3      H2             38.3525621345       42.2973665819       82.0522106166  TIP3      1858            0.0000000000
     22925      1995  TIP3      OH2            56.7537138950       38.6260780767       83.7373178215  TIP3      1859            0.0000000000
     22926      1995  TIP3      H1             57.1514754668       37.8070735868       83.3765483100  TIP3      1859            0.0000000000
     22927      1995  TIP3      H2             56.8061882560       39.2186737669       82.9637387498  TIP3      1859            0.0000000000
     22928      1996  TIP3      OH2            54.0199649321       40.7316514716       70.6270284519  TIP3      1860            0.0000000000
     22929      1996  TIP3      H1             54.1347076307       40.3433416743       71.5124685992  TIP3      1860            0.0000000000
     22930      1996  TIP3      H2             53.2145745133       40.2734353804       70.3207194339  TIP3      1860            0.0000000000
     22931      1997  TIP3      OH2            39.7409810288       40.8864877354       76.1447146946  TIP3      1861            0.0000000000
     22932      1997  TIP3      H1             40.0818544713       39.9849991387       75.9276344557  TIP3      1861            0.0000000000
     22933      1997  TIP3      H2             40.4821982821       41.4731504141       75.9041650077  TIP3      1861            0.0000000000
     22934      1998  TIP3      OH2            38.1411061370       44.0497071534       76.0029882551  TIP3      1862            0.0000000000
     22935      1998  TIP3      H1             38.9359045267       44.0117937784       75.4221887984  TIP3      1862            0.0000000000
     22936      1998  TIP3      H2             38.4937763863       44.5547665229       76.7380033946  TIP3      1862            0.0000000000
     22937      1999  TIP3      OH2            56.0108762124       40.6857137343       82.0492838315  TIP3      1863            0.0000000000
     22938      1999  TIP3      H1             55.3352805498       40.9047498617       82.7179569660  TIP3      1863            0.0000000000
     22939      1999  TIP3      H2             55.4486954341       40.1942747405       81.4177584829  TIP3      1863            0.0000000000
     22940      2000  TIP3      OH2            55.4257778672       40.1720542795       66.8025076505  TIP3      1864            0.0000000000
     22941      2000  TIP3      H1             55.5232950231       39.2600818949       66.5296549262  TIP3      1864            0.0000000000
     22942      2000  TIP3      H2             55.9141402369       40.6364198471       66.0933644440  TIP3      1864            0.0000000000
     22943      2001  TIP3      OH2            38.4510150048       40.2495606812       70.3885336096  TIP3      1865            0.0000000000
     22944      2001  TIP3      H1             37.8928602435       39.4680686400       70.2827409268  TIP3      1865            0.0000000000
     22945      2001  TIP3      H2             39.3050175957       39.8666556135       70.1131018281  TIP3      1865            0.0000000000
     22946      2002  TIP3      OH2            52.9845976247       55.0905255450       72.6314981759  TIP3      1866            0.0000000000
     22947      2002  TIP3      H1             53.6523105964       55.1747509717       71.9214257921  TIP3      1866            0.0000000000
     22948      2002  TIP3      H2             53.3540648521       55.6253009095       73.3605044993  TIP3      1866            0.0000000000
     22949      2003  TIP3      OH2            38.2520020610       38.6038213427       78.5185803325  TIP3      1867            0.0000000000
     22950      2003  TIP3      H1             37.7279116747       38.6158049319       79.3457328745  TIP3      1867            0.0000000000
     22951      2003  TIP3      H2             37.9503361390       39.3914336428       78.0333088026  TIP3      1867            0.0000000000
     22952      2004  TIP3      OH2            40.4070433265       51.9211467567       82.5563038956  TIP3      1868            0.0000000000
     22953      2004  TIP3      H1             39.5300513808       52.2350681245       82.2697421006  TIP3      1868            0.0000000000
     22954      2004  TIP3      H2             40.2508663239       50.9760696898       82.6661321596  TIP3      1868            0.0000000000
     22955      2005  TIP3      OH2            43.5862133203       53.8581681980       79.6712279873  TIP3      1869            0.0000000000
     22956      2005  TIP3      H1             43.4945717823       54.5801033689       79.0195944454  TIP3      1869            0.0000000000
     22957      2005  TIP3      H2             44.4814042966       53.5510183349       79.4345632298  TIP3      1869            0.0000000000
     22958      2006  TIP3      OH2            47.4982053456       54.6018347509       81.8211521173  TIP3      1870            0.0000000000
     22959      2006  TIP3      H1             47.5979409005       54.3868392806       82.7705161384  TIP3      1870            0.0000000000
     22960      2006  TIP3      H2             48.3734672401       54.9733392692       81.6236257511  TIP3      1870            0.0000000000
     22961      2007  TIP3      OH2            50.0289656976       56.0534056314       81.3549821482  TIP3      1871            0.0000000000
     22962      2007  TIP3      H1             50.7179710107       55.4371716896       81.0709995746  TIP3      1871            0.0000000000
     22963      2007  TIP3      H2             50.3441066845       56.3217891420       82.2404789938  TIP3      1871            0.0000000000
     22964      2008  TIP3      OH2            54.6945094785       38.2060169815       80.3395315847  TIP3      1872            0.0000000000
     22965      2008  TIP3      H1             54.0102235954       38.6179326256       79.7913974399  TIP3      1872            0.0000000000
     22966      2008  TIP3      H2             54.7459573603       37.3085638240       79.9532976958  TIP3      1872            0.0000000000
     22967      2009  TIP3      OH2            40.7974536981       56.3754688753       78.7549344174  TIP3      1873            0.0000000000
     22968      2009  TIP3      H1             40.1006902788       57.0661956194       78.7702169114  TIP3      1873            0.0000000000
     22969      2009  TIP3      H2             41.0038329705       56.2468443432       79.6927930777  TIP3      1873            0.0000000000
     22970      2010  TIP3      OH2            43.2466662363       55.9250250926       77.7994026339  TIP3      1874            0.0000000000
     22971      2010  TIP3      H1             42.2682076648       56.0197799910       77.9000491053  TIP3      1874            0.0000000000
     22972      2010  TIP3      H2             43.4128148705       56.6524379207       77.1634447037  TIP3      1874            0.0000000000
     22973      2011  TIP3      OH2            47.7584334337       55.5531630737       77.2617759119  TIP3      1875            0.0000000000
     22974      2011  TIP3      H1             46.9882759554       56.0943403731       77.0398360308  TIP3      1875            0.0000000000
     22975      2011  TIP3      H2             48.1844480666       56.1424185669       77.9242127323  TIP3      1875            0.0000000000
     22976      2012  TIP3      OH2            49.8431696754       54.2854534078       78.6960957521  TIP3      1876            0.0000000000
     22977      2012  TIP3      H1             49.3662517849       54.5418964479       77.8836256258  TIP3      1876            0.0000000000
     22978      2012  TIP3      H2             50.5596095309       54.9494106560       78.6361925343  TIP3      1876            0.0000000000
     22979      2013  TIP3      OH2            52.1361202642       56.0493653478       78.2123746340  TIP3      1877            0.0000000000
     22980      2013  TIP3      H1             52.2711981545       56.9254157281       77.7959438464  TIP3      1877            0.0000000000
     22981      2013  TIP3      H2             52.6786338805       55.4902775209       77.6054642389  TIP3      1877            0.0000000000
     22982      2014  TIP3      OH2            40.1636609790       54.7060612106       75.8032955175  TIP3      1878            0.0000000000
     22983      2014  TIP3      H1             39.9457759771       54.2733934538       76.6598687320  TIP3      1878            0.0000000000
     22984      2014  TIP3      H2             41.0579675761       54.3283097785       75.6386586616  TIP3      1878            0.0000000000
     22985      2015  TIP3      OH2            42.4076126436       53.4956163639       74.9827498899  TIP3      1879            0.0000000000
     22986      2015  TIP3      H1             42.4924219538       52.5554299155       75.2318003374  TIP3      1879            0.0000000000
     22987      2015  TIP3      H2             43.2811901396       53.8248039176       75.3025019352  TIP3      1879            0.0000000000
     22988      2016  TIP3      OH2            44.8338635503       53.9737673312       75.9392025457  TIP3      1880            0.0000000000
     22989      2016  TIP3      H1             45.3481626202       53.1605398634       75.7949597340  TIP3      1880            0.0000000000
     22990      2016  TIP3      H2             44.9879884524       54.1113108659       76.8898454774  TIP3      1880            0.0000000000
     22991      2017  TIP3      OH2            47.5845810777       39.1680399993       74.6479108525  TIP3      1881            0.0000000000
     22992      2017  TIP3      H1             46.9385824109       38.4837902310       74.9454265854  TIP3      1881            0.0000000000
     22993      2017  TIP3      H2             47.8451499531       38.8533768855       73.7519162372  TIP3      1881            0.0000000000
     22994      2018  TIP3      OH2            53.7543402960       37.7167943627       74.7580242224  TIP3      1882            0.0000000000
     22995      2018  TIP3      H1             54.3333504530       38.3764979158       74.3297220454  TIP3      1882            0.0000000000
     22996      2018  TIP3      H2             52.8829612587       37.8891223846       74.3250127273  TIP3      1882            0.0000000000
     22997      2019  TIP3      OH2            55.2749125029       39.1136478951       72.7012355612  TIP3      1883            0.0000000000
     22998      2019  TIP3      H1             55.6920736599       38.3831809101       72.1939991097  TIP3      1883            0.0000000000
     22999      2019  TIP3      H2             56.0828075371       39.6318014580       72.8687077995  TIP3      1883            0.0000000000
     23000      2020  TIP3      OH2            40.4787961601       37.9781991253       72.5853982594  TIP3      1884            0.0000000000
     23001      2020  TIP3      H1             39.5760300087       37.8274002787       72.2303884528  TIP3      1884            0.0000000000
     23002      2020  TIP3      H2             40.9194260885       37.1624201553       72.2465169363  TIP3      1884            0.0000000000
     23003      2021  TIP3      OH2            39.8226582307       38.2235092536       68.8086278489  TIP3      1885            0.0000000000
     23004      2021  TIP3      H1             40.1468994280       38.9023065726       68.1859807604  TIP3      1885            0.0000000000
     23005      2021  TIP3      H2             39.1022735991       37.8029490571       68.2886912081  TIP3      1885            0.0000000000
     23006      2022  TIP3      OH2            44.5651386666       37.8035053739       72.2297273545  TIP3      1886            0.0000000000
     23007      2022  TIP3      H1             45.4485563494       37.8479085106       71.8374229762  TIP3      1886            0.0000000000
     23008      2022  TIP3      H2             44.6615096411       38.2002081711       73.1100177823  TIP3      1886            0.0000000000
     23009      2023  TIP3      OH2            51.2578409374       38.3719160520       73.7365081909  TIP3      1887            0.0000000000
     23010      2023  TIP3      H1             51.1847811167       38.0290447388       72.8314797335  TIP3      1887            0.0000000000
     23011      2023  TIP3      H2             50.5602457388       37.8204705676       74.1509866971  TIP3      1887            0.0000000000
     23012      2024  TIP3      OH2            51.6702420077       38.0402467846       69.7982179892  TIP3      1888            0.0000000000
     23013      2024  TIP3      H1             51.2979821111       38.0058242609       68.8971207013  TIP3      1888            0.0000000000
     23014      2024  TIP3      H2             51.2138135618       37.2505682645       70.1768713165  TIP3      1888            0.0000000000
     23015      2025  TIP3      OH2            39.4190293851       53.8952530036       69.1751768287  TIP3      1889            0.0000000000
     23016      2025  TIP3      H1             38.6409300356       53.9054334372       68.5919499718  TIP3      1889            0.0000000000
     23017      2025  TIP3      H2             39.8258309519       54.7202936911       68.8578759881  TIP3      1889            0.0000000000
     23018      2026  TIP3      OH2            41.6408275111       39.4343090871       67.1598697769  TIP3      1890            0.0000000000
     23019      2026  TIP3      H1             41.5803857915       38.4706247602       66.9979363368  TIP3      1890            0.0000000000
     23020      2026  TIP3      H2             42.3185967089       39.5526745537       67.8591341624  TIP3      1890            0.0000000000
     23021      2027  TIP3      OH2            46.2945776714       40.2604715221       68.7091031869  TIP3      1891            0.0000000000
     23022      2027  TIP3      H1             46.9970359518       40.1705745924       68.0033827024  TIP3      1891            0.0000000000
     23023      2027  TIP3      H2             46.6407987212       40.9957081545       69.2315886890  TIP3      1891            0.0000000000
     23024      2028  TIP3      OH2            48.0842137284       55.7286514723       67.0780471331  TIP3      1892            0.0000000000
     23025      2028  TIP3      H1             49.0715325756       55.6598405939       67.0349886113  TIP3      1892            0.0000000000
     23026      2028  TIP3      H2             47.8469667087       55.0041880885       66.4538871433  TIP3      1892            0.0000000000
     23027      2029  TIP3      OH2            54.7308304580       55.1268630417       70.5495418734  TIP3      1893            0.0000000000
     23028      2029  TIP3      H1             54.7853913491       54.3116678685       69.9991859409  TIP3      1893            0.0000000000
     23029      2029  TIP3      H2             54.0907536549       55.6947040230       70.0589525674  TIP3      1893            0.0000000000
     23030      2030  TIP3      OH2            40.4538162118       38.9241736171       81.7683771328  TIP3      1894            0.0000000000
     23031      2030  TIP3      H1             39.9523177825       38.1378638357       82.0459755321  TIP3      1894            0.0000000000
     23032      2030  TIP3      H2             41.2754025171       38.8030991133       82.3013828296  TIP3      1894            0.0000000000
     23033      2031  TIP3      OH2            42.3680409591       38.5201965126       83.7229634704  TIP3      1895            0.0000000000
     23034      2031  TIP3      H1             43.1080485665       37.9717377704       83.3965105598  TIP3      1895            0.0000000000
     23035      2031  TIP3      H2             41.9355307415       37.8926363152       84.3450110523  TIP3      1895            0.0000000000
     23036      2032  TIP3      OH2            50.8772650528       37.7684074554       83.8999394998  TIP3      1896            0.0000000000
     23037      2032  TIP3      H1             51.0563082142       37.3484029585       84.7766335336  TIP3      1896            0.0000000000
     23038      2032  TIP3      H2             51.7391354679       37.5980605278       83.4745849561  TIP3      1896            0.0000000000
     23039      2033  TIP3      OH2            54.3094653192       53.7294423031       82.3680834720  TIP3      1897            0.0000000000
     23040      2033  TIP3      H1             53.6248196971       53.6734870507       81.6617292062  TIP3      1897            0.0000000000
     23041      2033  TIP3      H2             54.2560307548       54.6709052581       82.5984134388  TIP3      1897            0.0000000000
     23042      2034  TIP3      OH2            60.3401524249       46.3419462487       77.0676337206  TIP3      1898            0.0000000000
     23043      2034  TIP3      H1             60.4305671953       45.3925330321       77.2257681092  TIP3      1898            0.0000000000
     23044      2034  TIP3      H2             60.4031256204       46.6654721904       77.9906079822  TIP3      1898            0.0000000000
     23045      2035  TIP3      OH2            60.8050921171       50.9344658686       75.5515344642  TIP3      1899            0.0000000000
     23046      2035  TIP3      H1             60.6147972817       49.9673543623       75.4345569318  TIP3      1899            0.0000000000
     23047      2035  TIP3      H2             61.7641689459       50.9357853469       75.3610488152  TIP3      1899            0.0000000000
     23048      2036  TIP3      OH2            57.3732878176       44.2160095275       71.0794110318  TIP3      1900            0.0000000000
     23049      2036  TIP3      H1             57.1500767716       45.1483669843       71.2600566858  TIP3      1900            0.0000000000
     23050      2036  TIP3      H2             56.7754375219       44.0381807026       70.3294347501  TIP3      1900            0.0000000000
     23051      2037  TIP3      OH2            57.5601432034       46.2096323993       73.7787089168  TIP3      1901            0.0000000000
     23052      2037  TIP3      H1             58.2000082070       45.4776438710       73.9041692821  TIP3      1901            0.0000000000
     23053      2037  TIP3      H2             58.1063921229       47.0060197145       73.9041456114  TIP3      1901            0.0000000000
     23054      2038  TIP3      OH2            65.9801651584       49.5438758816       77.0801506335  TIP3      1902            0.0000000000
     23055      2038  TIP3      H1             66.6384319450       48.9097857036       76.7440515635  TIP3      1902            0.0000000000
     23056      2038  TIP3      H2             66.3169592686       50.4067628170       76.7593464583  TIP3      1902            0.0000000000
     23057      2039  TIP3      OH2            62.0658013477       41.5304524344       73.1977895693  TIP3      1903            0.0000000000
     23058      2039  TIP3      H1             62.2564080502       42.3355478361       72.6785302294  TIP3      1903            0.0000000000
     23059      2039  TIP3      H2             61.7393132688       40.9280777755       72.4793942188  TIP3      1903            0.0000000000
     23060      2040  TIP3      OH2            59.2352690239       44.0141825900       74.4663075548  TIP3      1904            0.0000000000
     23061      2040  TIP3      H1             59.8665718176       43.5049666984       75.0248980089  TIP3      1904            0.0000000000
     23062      2040  TIP3      H2             59.4941528035       43.6831835474       73.5742127116  TIP3      1904            0.0000000000
     23063      2041  TIP3      OH2            63.4701929526       45.3473707520       73.6460289420  TIP3      1905            0.0000000000
     23064      2041  TIP3      H1             64.1917406876       44.7634201923       73.9684282351  TIP3      1905            0.0000000000
     23065      2041  TIP3      H2             63.1398764186       44.8097153141       72.8962550512  TIP3      1905            0.0000000000
     23066      2042  TIP3      OH2            61.0967461772       40.4253040300       77.7173717906  TIP3      1906            0.0000000000
     23067      2042  TIP3      H1             60.6656185062       40.9120339623       76.9905083038  TIP3      1906            0.0000000000
     23068      2042  TIP3      H2             60.5125298197       40.6908545215       78.4542139391  TIP3      1906            0.0000000000
     23069      2043  TIP3      OH2            63.9061142257       48.0272564857       77.8545035808  TIP3      1907            0.0000000000
     23070      2043  TIP3      H1             63.2620189146       48.6496890629       78.2296939633  TIP3      1907            0.0000000000
     23071      2043  TIP3      H2             64.5747546074       48.6569253977       77.5065918490  TIP3      1907            0.0000000000
     23072      2044  TIP3      OH2            60.9420768453       42.2820599395       75.4719729941  TIP3      1908            0.0000000000
     23073      2044  TIP3      H1             61.6663071622       42.7583064737       75.9246873229  TIP3      1908            0.0000000000
     23074      2044  TIP3      H2             61.3598022335       42.0008321744       74.6180464630  TIP3      1908            0.0000000000
     23075      2045  TIP3      OH2            61.9488541739       50.2536549232       78.4421413483  TIP3      1909            0.0000000000
     23076      2045  TIP3      H1             61.8006817228       50.7129018649       77.5980170311  TIP3      1909            0.0000000000
     23077      2045  TIP3      H2             61.0645332943       50.4008392679       78.8572541181  TIP3      1909            0.0000000000
     23078      2046  TIP3      OH2            58.0063219590       49.9208491990       69.3397287818  TIP3      1910            0.0000000000
     23079      2046  TIP3      H1             57.7401995973       50.6257457078       68.7450235161  TIP3      1910            0.0000000000
     23080      2046  TIP3      H2             58.2958394640       50.4672985750       70.1009037942  TIP3      1910            0.0000000000
     23081      2047  TIP3      OH2            64.5730079604       37.9986448265       75.1655435507  TIP3      1911            0.0000000000
     23082      2047  TIP3      H1             64.5842589820       37.5199432803       76.0023808383  TIP3      1911            0.0000000000
     23083      2047  TIP3      H2             63.7190558365       38.4895390655       75.2398191137  TIP3      1911            0.0000000000
     23084      2048  TIP3      OH2            62.2401015468       47.5190509412       72.8467367888  TIP3      1912            0.0000000000
     23085      2048  TIP3      H1             62.1808708505       47.2936607157       71.9089651742  TIP3      1912            0.0000000000
     23086      2048  TIP3      H2             62.8528718580       46.8152877042       73.1537256221  TIP3      1912            0.0000000000
     23087      2049  TIP3      OH2            63.8190810002       50.8494566852       75.2126211460  TIP3      1913            0.0000000000
     23088      2049  TIP3      H1             64.1434353683       50.7420085709       74.3043464579  TIP3      1913            0.0000000000
     23089      2049  TIP3      H2             64.3776549782       50.2245681811       75.7064832222  TIP3      1913            0.0000000000
     23090      2050  TIP3      OH2            63.0805534835       45.7737668982       76.3657854731  TIP3      1914            0.0000000000
     23091      2050  TIP3      H1             63.1580608639       45.9601298512       75.4052075118  TIP3      1914            0.0000000000
     23092      2050  TIP3      H2             63.3397633027       46.6228108847       76.7800725159  TIP3      1914            0.0000000000
     23093      2051  TIP3      OH2            63.5739735068       50.1286812490       80.6812259778  TIP3      1915            0.0000000000
     23094      2051  TIP3      H1             63.0795229253       50.8461277660       81.1346766772  TIP3      1915            0.0000000000
     23095      2051  TIP3      H2             63.0836278347       50.1146890102       79.8296216482  TIP3      1915            0.0000000000
     23096      2052  TIP3      OH2            60.4872138293       46.6673235312       79.7577078243  TIP3      1916            0.0000000000
     23097      2052  TIP3      H1             60.6944170506       47.4935468119       80.2295599434  TIP3      1916            0.0000000000
     23098      2052  TIP3      H2             59.8135957765       46.3348855594       80.3717549465  TIP3      1916            0.0000000000
     23099      2053  TIP3      OH2            62.0592848416       52.0017936060       81.9481824894  TIP3      1917            0.0000000000
     23100      2053  TIP3      H1             62.0349519733       52.5276258980       81.1189217813  TIP3      1917            0.0000000000
     23101      2053  TIP3      H2             61.0913454444       51.9247145980       82.1181189585  TIP3      1917            0.0000000000
     23102      2054  TIP3      OH2            61.1542516830       46.8895010726       69.5996986326  TIP3      1918            0.0000000000
     23103      2054  TIP3      H1             61.0786466496       47.8653194259       69.5858660390  TIP3      1918            0.0000000000
     23104      2054  TIP3      H2             60.2982548688       46.6293514243       69.9536872026  TIP3      1918            0.0000000000
     23105      2055  TIP3      OH2            57.6929849324       49.0848074740       79.0453396010  TIP3      1919            0.0000000000
     23106      2055  TIP3      H1             57.3225364360       49.2206623269       78.1613978707  TIP3      1919            0.0000000000
     23107      2055  TIP3      H2             57.7268163418       48.1226522284       79.1208630401  TIP3      1919            0.0000000000
     23108      2056  TIP3      OH2            57.9930391404       51.9248259241       75.6234971084  TIP3      1920            0.0000000000
     23109      2056  TIP3      H1             58.6579804506       51.2159119627       75.5965263030  TIP3      1920            0.0000000000
     23110      2056  TIP3      H2             58.4643115853       52.6384049754       76.0718821921  TIP3      1920            0.0000000000
     23111      2057  TIP3      OH2            60.4597410259       54.5233861393       72.2276316682  TIP3      1921            0.0000000000
     23112      2057  TIP3      H1             60.6462023341       54.1889385391       73.1386228619  TIP3      1921            0.0000000000
     23113      2057  TIP3      H2             59.5439591132       54.2328432781       72.0837626079  TIP3      1921            0.0000000000
     23114      2058  TIP3      OH2            59.6984932628       50.6061908477       79.7490901797  TIP3      1922            0.0000000000
     23115      2058  TIP3      H1             59.8791098842       50.1012093133       80.5691927709  TIP3      1922            0.0000000000
     23116      2058  TIP3      H2             58.9124704615       50.0980395174       79.4380562716  TIP3      1922            0.0000000000
     23117      2059  TIP3      OH2            62.2310679306       39.0237807128       75.7231042666  TIP3      1923            0.0000000000
     23118      2059  TIP3      H1             61.2681140869       38.9289556799       75.5561770737  TIP3      1923            0.0000000000
     23119      2059  TIP3      H2             62.2081174651       39.5263789894       76.5588272498  TIP3      1923            0.0000000000
     23120      2060  TIP3      OH2            62.7477873587       43.2981951541       77.3318637009  TIP3      1924            0.0000000000
     23121      2060  TIP3      H1             61.9621547858       43.4573930946       77.8987961992  TIP3      1924            0.0000000000
     23122      2060  TIP3      H2             62.8277000917       44.1770398336       76.8836423776  TIP3      1924            0.0000000000
     23123      2061  TIP3      OH2            62.3382872623       43.7676195764       71.7326666118  TIP3      1925            0.0000000000
     23124      2061  TIP3      H1             61.3642298651       43.6658188255       71.6975663884  TIP3      1925            0.0000000000
     23125      2061  TIP3      H2             62.6528532593       43.4568878563       70.8519297750  TIP3      1925            0.0000000000
     23126      2062  TIP3      OH2            60.3412983744       43.7274729776       78.5082740925  TIP3      1926            0.0000000000
     23127      2062  TIP3      H1             60.5159197731       44.2710227403       79.2972610684  TIP3      1926            0.0000000000
     23128      2062  TIP3      H2             59.9017746686       42.9346176557       78.8799764617  TIP3      1926            0.0000000000
     23129      2063  TIP3      OH2            57.2681336386       40.8747753366       72.8923971866  TIP3      1927            0.0000000000
     23130      2063  TIP3      H1             58.1339396114       40.5556274562       73.1995144270  TIP3      1927            0.0000000000
     23131      2063  TIP3      H2             57.4179476421       41.0816699954       71.9472872250  TIP3      1927            0.0000000000
     23132      2064  TIP3      OH2            57.8277426306       42.0801197098       68.1537311639  TIP3      1928            0.0000000000
     23133      2064  TIP3      H1             58.3538760876       42.8779328037       68.0629124233  TIP3      1928            0.0000000000
     23134      2064  TIP3      H2             56.9662113317       42.4720547689       68.3810667496  TIP3      1928            0.0000000000
     23135      2065  TIP3      OH2            64.6979643204       40.9685452874       73.2874936058  TIP3      1929            0.0000000000
     23136      2065  TIP3      H1             63.7842770700       41.1957322753       73.5664228809  TIP3      1929            0.0000000000
     23137      2065  TIP3      H2             65.2520681137       41.5526801013       73.8328013792  TIP3      1929            0.0000000000
     23138      2066  TIP3      OH2            59.6281441793       43.1823222826       71.9933813419  TIP3      1930            0.0000000000
     23139      2066  TIP3      H1             58.7487168656       43.5370046143       71.7072257282  TIP3      1930            0.0000000000
     23140      2066  TIP3      H2             59.7708087255       42.4934804519       71.3303626776  TIP3      1930            0.0000000000
     23141      2067  TIP3      OH2            63.3901628660       43.2210501632       69.2515606166  TIP3      1931            0.0000000000
     23142      2067  TIP3      H1             64.1961568166       43.3141048725       69.8043515075  TIP3      1931            0.0000000000
     23143      2067  TIP3      H2             63.7486011347       42.7177551256       68.4978676356  TIP3      1931            0.0000000000
     23144      2068  TIP3      OH2            61.6531347381       45.0925836360       66.9727255009  TIP3      1932            0.0000000000
     23145      2068  TIP3      H1             61.1193238998       44.3476277398       66.6715839812  TIP3      1932            0.0000000000
     23146      2068  TIP3      H2             62.3346687177       44.7096540206       67.5574789536  TIP3      1932            0.0000000000
     23147      2069  TIP3      OH2            59.9941888084       48.8544691647       82.0266311720  TIP3      1933            0.0000000000
     23148      2069  TIP3      H1             60.7177461117       48.9374229523       82.6739230352  TIP3      1933            0.0000000000
     23149      2069  TIP3      H2             59.2267676887       48.6430810937       82.6017683182  TIP3      1933            0.0000000000
     23150      2070  TIP3      OH2            65.6028757812       43.8516273449       74.3414208402  TIP3      1934            0.0000000000
     23151      2070  TIP3      H1             66.4840816949       43.9929252759       73.9527233761  TIP3      1934            0.0000000000
     23152      2070  TIP3      H2             65.8250028178       44.1229149603       75.2630835662  TIP3      1934            0.0000000000
     23153      2071  TIP3      OH2            61.1333780073       39.8948740505       71.3540507359  TIP3      1935            0.0000000000
     23154      2071  TIP3      H1             60.3790115939       39.3408467604       71.6511434607  TIP3      1935            0.0000000000
     23155      2071  TIP3      H2             61.7316253394       39.2497782035       70.9563335560  TIP3      1935            0.0000000000
     23156      2072  TIP3      OH2            65.2205323246       42.3349956245       78.1157434620  TIP3      1936            0.0000000000
     23157      2072  TIP3      H1             64.4154403227       42.8644945599       77.9439332748  TIP3      1936            0.0000000000
     23158      2072  TIP3      H2             65.8364083456       42.7901578879       77.5147048705  TIP3      1936            0.0000000000
     23159      2073  TIP3      OH2            65.4737492944       48.8415389126       69.5110321177  TIP3      1937            0.0000000000
     23160      2073  TIP3      H1             64.7756615805       48.2376451960       69.2090626533  TIP3      1937            0.0000000000
     23161      2073  TIP3      H2             65.0588560983       49.2521114243       70.3051536029  TIP3      1937            0.0000000000
     23162      2074  TIP3      OH2            60.5785940204       48.2669329374       75.2905736538  TIP3      1938            0.0000000000
     23163      2074  TIP3      H1             61.1346546385       47.9206902066       74.5691155666  TIP3      1938            0.0000000000
     23164      2074  TIP3      H2             60.5346638433       47.4797618408       75.8831877633  TIP3      1938            0.0000000000
     23165      2075  TIP3      OH2            57.5789417221       46.7061271403       80.6885356679  TIP3      1939            0.0000000000
     23166      2075  TIP3      H1             57.5865077904       45.8943670761       81.2189331284  TIP3      1939            0.0000000000
     23167      2075  TIP3      H2             57.0266059179       46.4413043403       79.9218488698  TIP3      1939            0.0000000000
     23168      2076  TIP3      OH2            64.9820285741       46.2973734044       82.0245504010  TIP3      1940            0.0000000000
     23169      2076  TIP3      H1             64.5021386746       46.1582190643       81.1896027431  TIP3      1940            0.0000000000
     23170      2076  TIP3      H2             65.5115583731       45.4835608115       82.0882699751  TIP3      1940            0.0000000000
     23171      2077  TIP3      OH2            63.0333684866       51.9037307960       72.3681927751  TIP3      1941            0.0000000000
     23172      2077  TIP3      H1             63.2550097088       52.8455793962       72.1821665872  TIP3      1941            0.0000000000
     23173      2077  TIP3      H2             62.1007444930       51.9031624205       72.1075923433  TIP3      1941            0.0000000000
     23174      2078  TIP3      OH2            64.2911900963       49.5324401174       71.8486548609  TIP3      1942            0.0000000000
     23175      2078  TIP3      H1             63.9296288340       50.4417279918       71.9619169529  TIP3      1942            0.0000000000
     23176      2078  TIP3      H2             63.6565344999       49.0208841298       72.3755165832  TIP3      1942            0.0000000000
     23177      2079  TIP3      OH2            64.8753901803       53.5377318841       78.9695676276  TIP3      1943            0.0000000000
     23178      2079  TIP3      H1             65.0570572591       54.4881321436       78.9015065940  TIP3      1943            0.0000000000
     23179      2079  TIP3      H2             65.5340783604       53.2311201574       79.6075050696  TIP3      1943            0.0000000000
     23180      2080  TIP3      OH2            63.3235354117       54.5652646550       71.6672537598  TIP3      1944            0.0000000000
     23181      2080  TIP3      H1             62.3841237389       54.7904177547       71.8193493673  TIP3      1944            0.0000000000
     23182      2080  TIP3      H2             63.7811748473       55.3017963270       72.1397186950  TIP3      1944            0.0000000000
     23183      2081  TIP3      OH2            59.6121789546       41.2417781637       79.9450343795  TIP3      1945            0.0000000000
     23184      2081  TIP3      H1             59.0537207658       41.5803099764       80.6549350738  TIP3      1945            0.0000000000
     23185      2081  TIP3      H2             59.7554808695       40.3390435714       80.2914904320  TIP3      1945            0.0000000000
     23186      2082  TIP3      OH2            59.2825597581       53.4652049293       78.1397942967  TIP3      1946            0.0000000000
     23187      2082  TIP3      H1             59.3512954446       52.5099041225       78.0529008107  TIP3      1946            0.0000000000
     23188      2082  TIP3      H2             59.6623186127       53.5738946988       79.0240321042  TIP3      1946            0.0000000000
     23189      2083  TIP3      OH2            64.2260659993       52.0150796088       65.3182866949  TIP3      1947            0.0000000000
     23190      2083  TIP3      H1             63.3492402088       51.6406043476       65.0728209917  TIP3      1947            0.0000000000
     23191      2083  TIP3      H2             64.0190380898       52.2509547369       66.2419578405  TIP3      1947            0.0000000000
     23192      2084  TIP3      OH2            64.0000683612       51.9581478426       68.1183351982  TIP3      1948            0.0000000000
     23193      2084  TIP3      H1             63.1257719511       51.5164430117       68.2407795451  TIP3      1948            0.0000000000
     23194      2084  TIP3      H2             63.8318249408       52.8546169973       68.4817101083  TIP3      1948            0.0000000000
     23195      2085  TIP3      OH2            65.1329293431       42.5266996162       71.1740469224  TIP3      1949            0.0000000000
     23196      2085  TIP3      H1             66.0704537335       42.7606250526       71.2881801402  TIP3      1949            0.0000000000
     23197      2085  TIP3      H2             65.0106269854       41.8862183244       71.9091360411  TIP3      1949            0.0000000000
     23198      2086  TIP3      OH2            63.8007034081       54.6950636430       68.9101248153  TIP3      1950            0.0000000000
     23199      2086  TIP3      H1             63.2696081286       55.3992110201       68.5069653951  TIP3      1950            0.0000000000
     23200      2086  TIP3      H2             63.5223817727       54.7129285240       69.8493012289  TIP3      1950            0.0000000000
     23201      2087  TIP3      OH2            61.4886958872       51.0073245468       67.9681484406  TIP3      1951            0.0000000000
     23202      2087  TIP3      H1             60.8829014644       51.7562930065       67.9181481058  TIP3      1951            0.0000000000
     23203      2087  TIP3      H2             61.5553680656       50.7317270880       67.0235595347  TIP3      1951            0.0000000000
     23204      2088  TIP3      OH2            59.6835806680       38.4547197600       75.1749216791  TIP3      1952            0.0000000000
     23205      2088  TIP3      H1             59.7455802123       38.3265703343       74.2014497164  TIP3      1952            0.0000000000
     23206      2088  TIP3      H2             59.5603027425       37.5264288198       75.4830265027  TIP3      1952            0.0000000000
     23207      2089  TIP3      OH2            58.8748522307       51.9547926893       70.9682047452  TIP3      1953            0.0000000000
     23208      2089  TIP3      H1             58.5153033568       52.3642406863       71.7694322628  TIP3      1953            0.0000000000
     23209      2089  TIP3      H2             58.8632810804       52.7030105471       70.3302437637  TIP3      1953            0.0000000000
     23210      2090  TIP3      OH2            57.8155480381       55.4308043266       82.7782094856  TIP3      1954            0.0000000000
     23211      2090  TIP3      H1             58.5634994058       55.1795750509       83.3681997410  TIP3      1954            0.0000000000
     23212      2090  TIP3      H2             57.4230892298       54.5449274304       82.6518547508  TIP3      1954            0.0000000000
     23213      2091  TIP3      OH2            62.4093116279       54.0618628971       83.7719611806  TIP3      1955            0.0000000000
     23214      2091  TIP3      H1             63.3224714640       53.7740750452       83.9261255275  TIP3      1955            0.0000000000
     23215      2091  TIP3      H2             62.1843072309       53.5057572940       83.0011657919  TIP3      1955            0.0000000000
     23216      2092  TIP3      OH2            57.7099008127       48.9358531842       83.7291622526  TIP3      1956            0.0000000000
     23217      2092  TIP3      H1             57.2274433421       48.0880114699       83.7850663306  TIP3      1956            0.0000000000
     23218      2092  TIP3      H2             57.3428180642       49.3070302309       82.8967425855  TIP3      1956            0.0000000000
     23219      2093  TIP3      OH2            64.5193485478       49.0234696696       82.9062402642  TIP3      1957            0.0000000000
     23220      2093  TIP3      H1             64.2680940469       49.4546470948       82.0520773354  TIP3      1957            0.0000000000
     23221      2093  TIP3      H2             64.6436182893       48.0996909253       82.5846858499  TIP3      1957            0.0000000000
     23222      2094  TIP3      OH2            59.1800233479       46.1186195981       83.0914415708  TIP3      1958            0.0000000000
     23223      2094  TIP3      H1             58.6928221396       45.3413367388       83.3588344617  TIP3      1958            0.0000000000
     23224      2094  TIP3      H2             59.3803746598       46.5427424170       83.9575502944  TIP3      1958            0.0000000000
     23225      2095  TIP3      OH2            63.2347894162       47.0859494315       67.9078169717  TIP3      1959            0.0000000000
     23226      2095  TIP3      H1             62.5742214055       46.9183200852       68.6100925957  TIP3      1959            0.0000000000
     23227      2095  TIP3      H2             62.7715757759       46.6984136022       67.1534631589  TIP3      1959            0.0000000000
     23228      2096  TIP3      OH2            62.6985048019       45.2137309626       79.9995917275  TIP3      1960            0.0000000000
     23229      2096  TIP3      H1             61.9225489862       45.8108263737       79.9499821016  TIP3      1960            0.0000000000
     23230      2096  TIP3      H2             63.2889200304       45.5647836267       79.3194619805  TIP3      1960            0.0000000000
     23231      2097  TIP3      OH2            65.3463885165       43.3675285035       66.9797463638  TIP3      1961            0.0000000000
     23232      2097  TIP3      H1             65.9227751850       43.3963095331       66.1734233486  TIP3      1961            0.0000000000
     23233      2097  TIP3      H2             65.0073782487       44.2672973509       66.9684866778  TIP3      1961            0.0000000000
     23234      2098  TIP3      OH2            63.2338459676       42.6343220184       80.7936992092  TIP3      1962            0.0000000000
     23235      2098  TIP3      H1             63.3196009370       41.9693664204       80.0911888327  TIP3      1962            0.0000000000
     23236      2098  TIP3      H2             63.0515252523       43.4852900337       80.3279157316  TIP3      1962            0.0000000000
     23237      2099  TIP3      OH2            63.6266872076       40.2793604324       78.7334142714  TIP3      1963            0.0000000000
     23238      2099  TIP3      H1             64.2923369316       40.9172783480       78.3941055288  TIP3      1963            0.0000000000
     23239      2099  TIP3      H2             62.8088935929       40.6144734567       78.3073166035  TIP3      1963            0.0000000000
     23240      2100  TIP3      OH2            65.5997517023       45.9009279309       78.9335704120  TIP3      1964            0.0000000000
     23241      2100  TIP3      H1             65.7881846985       45.2872778642       78.1979420963  TIP3      1964            0.0000000000
     23242      2100  TIP3      H2             65.3847100995       46.7221643941       78.4601603502  TIP3      1964            0.0000000000
     23243      2101  TIP3      OH2            62.1351921572       43.3638995339       83.1573699797  TIP3      1965            0.0000000000
     23244      2101  TIP3      H1             61.1926991918       43.1735613425       82.9607344339  TIP3      1965            0.0000000000
     23245      2101  TIP3      H2             62.5630867722       43.1081562725       82.3109522807  TIP3      1965            0.0000000000
     23246      2102  TIP3      OH2            64.3300480415       37.7113696106       78.8868200356  TIP3      1966            0.0000000000
     23247      2102  TIP3      H1             64.1898657715       38.6906071206       78.9467865726  TIP3      1966            0.0000000000
     23248      2102  TIP3      H2             63.3880200015       37.4571644571       78.7704454766  TIP3      1966            0.0000000000
     23249      2103  TIP3      OH2            65.1532644348       43.0584107363       82.8199170459  TIP3      1967            0.0000000000
     23250      2103  TIP3      H1             64.7316904253       42.4337326581       83.4260730975  TIP3      1967            0.0000000000
     23251      2103  TIP3      H2             64.8428306649       42.7055509710       81.9626002606  TIP3      1967            0.0000000000
     23252      2104  TIP3      OH2            59.9061111911       41.6916670970       83.0594689842  TIP3      1968            0.0000000000
     23253      2104  TIP3      H1             60.2084452841       40.8067724621       82.7885725560  TIP3      1968            0.0000000000
     23254      2104  TIP3      H2             59.9336375678       41.5985390381       84.0435307983  TIP3      1968            0.0000000000
     23255      2105  TIP3      OH2            64.6622594726       37.6833161715       81.6924703800  TIP3      1969            0.0000000000
     23256      2105  TIP3      H1             65.5598767011       37.3201047360       81.8180824382  TIP3      1969            0.0000000000
     23257      2105  TIP3      H2             64.5848894116       37.7123609099       80.7179587075  TIP3      1969            0.0000000000
     23258      2106  TIP3      OH2            64.9316052977       38.9712669651       84.2021716741  TIP3      1970            0.0000000000
     23259      2106  TIP3      H1             64.6692631094       38.5564073862       83.3656538356  TIP3      1970            0.0000000000
     23260      2106  TIP3      H2             64.3839267700       39.7821660593       84.1843747630  TIP3      1970            0.0000000000
     23261      2107  TIP3      OH2            56.8515579406       56.0673670843       71.8775217890  TIP3      1971            0.0000000000
     23262      2107  TIP3      H1             56.1037599051       55.6528511080       71.3931121685  TIP3      1971            0.0000000000
     23263      2107  TIP3      H2             57.0375827972       55.3821693821       72.5468512058  TIP3      1971            0.0000000000
     23264      2108  TIP3      OH2            57.7735572511       54.3043923121       73.9326263464  TIP3      1972            0.0000000000
     23265      2108  TIP3      H1             57.3002170833       53.5504076539       74.3244239140  TIP3      1972            0.0000000000
     23266      2108  TIP3      H2             57.8753261032       54.8845860463       74.7211020575  TIP3      1972            0.0000000000
     23267      2109  TIP3      OH2            57.6964303577       46.4754342001       76.6227322869  TIP3      1973            0.0000000000
     23268      2109  TIP3      H1             57.5055490507       46.9792511012       75.7936829534  TIP3      1973            0.0000000000
     23269      2109  TIP3      H2             58.6770696495       46.5413400076       76.6125668130  TIP3      1973            0.0000000000
     23270      2110  TIP3      OH2            57.4127609964       42.4971910494       83.5332044905  TIP3      1974            0.0000000000
     23271      2110  TIP3      H1             58.3362953955       42.1711799207       83.4593553694  TIP3      1974            0.0000000000
     23272      2110  TIP3      H2             56.9264748511       41.7822452374       83.0739265953  TIP3      1974            0.0000000000
     23273      2111  TIP3      OH2            58.7506092702       40.7908731074       75.8449461055  TIP3      1975            0.0000000000
     23274      2111  TIP3      H1             59.0726700940       39.8804466188       75.6204996090  TIP3      1975            0.0000000000
     23275      2111  TIP3      H2             59.4583061144       41.3805983538       75.5005795419  TIP3      1975            0.0000000000
     23276      2112  TIP3      OH2            56.9733683752       44.0269948100       75.8720486503  TIP3      1976            0.0000000000
     23277      2112  TIP3      H1             57.8588771657       43.8962915360       75.4637416026  TIP3      1976            0.0000000000
     23278      2112  TIP3      H2             57.0465188917       44.9822756978       76.0935400947  TIP3      1976            0.0000000000
     23279      2113  TIP3      OH2            57.0274906226       40.3767219736       70.1513318812  TIP3      1977            0.0000000000
     23280      2113  TIP3      H1             56.0649661012       40.3337519141       70.2338562609  TIP3      1977            0.0000000000
     23281      2113  TIP3      H2             57.1375003981       40.7122998499       69.2382998745  TIP3      1977            0.0000000000
     23282      2114  TIP3      OH2            57.0407954340       38.6719873763       78.4655784653  TIP3      1978            0.0000000000
     23283      2114  TIP3      H1             56.3633553162       38.3367080448       79.0763437862  TIP3      1978            0.0000000000
     23284      2114  TIP3      H2             56.6647143250       39.4930668719       78.1247910494  TIP3      1978            0.0000000000
     23285      2115  TIP3      OH2            59.4409703324       52.0857777218       82.5852397450  TIP3      1979            0.0000000000
     23286      2115  TIP3      H1             58.5484508787       52.2813241096       82.2516637175  TIP3      1979            0.0000000000
     23287      2115  TIP3      H2             59.2727505580       51.4839641006       83.3200058701  TIP3      1979            0.0000000000
     23288      2116  TIP3      OH2            62.2417899277       53.5412922190       79.5389748810  TIP3      1980            0.0000000000
     23289      2116  TIP3      H1             62.1356142874       54.3410696047       78.9713357424  TIP3      1980            0.0000000000
     23290      2116  TIP3      H2             63.1875461288       53.3369257269       79.3506643008  TIP3      1980            0.0000000000
     23291      2117  TIP3      OH2            59.6840158257       56.5763778528       79.1435852258  TIP3      1981            0.0000000000
     23292      2117  TIP3      H1             58.8602090151       57.0753222213       78.9403023603  TIP3      1981            0.0000000000
     23293      2117  TIP3      H2             59.5666614498       56.4168791495       80.0880633129  TIP3      1981            0.0000000000
     23294      2118  TIP3      OH2            61.9105389424       55.7909733797       78.0288538790  TIP3      1982            0.0000000000
     23295      2118  TIP3      H1             61.0049885432       55.9028737558       78.4160107381  TIP3      1982            0.0000000000
     23296      2118  TIP3      H2             61.8729822715       56.4704719622       77.3239107993  TIP3      1982            0.0000000000
     23297      2119  TIP3      OH2            59.5426286794       55.1719699245       75.9890619792  TIP3      1983            0.0000000000
     23298      2119  TIP3      H1             59.3218359255       54.7185974014       76.8316054771  TIP3      1983            0.0000000000
     23299      2119  TIP3      H2             60.2493323919       54.5874700143       75.6413183343  TIP3      1983            0.0000000000
     23300      2120  TIP3      OH2            61.2496790093       53.5807927158       74.6079487001  TIP3      1984            0.0000000000
     23301      2120  TIP3      H1             60.9862066085       52.6828919177       74.8924597742  TIP3      1984            0.0000000000
     23302      2120  TIP3      H2             62.0826174073       53.7002980210       75.1252550366  TIP3      1984            0.0000000000
     23303      2121  TIP3      OH2            63.4549172308       53.4898187394       76.0645804991  TIP3      1985            0.0000000000
     23304      2121  TIP3      H1             63.7788080404       52.6402034372       75.7024455264  TIP3      1985            0.0000000000
     23305      2121  TIP3      H2             63.8004256415       53.4655429891       76.9712881141  TIP3      1985            0.0000000000
     23306      2122  TIP3      OH2            59.2426115686       38.2885763509       72.4013462271  TIP3      1986            0.0000000000
     23307      2122  TIP3      H1             58.3658533851       37.9782728792       72.1008356334  TIP3      1986            0.0000000000
     23308      2122  TIP3      H2             59.8049656202       37.5251533107       72.1353380177  TIP3      1986            0.0000000000
     23309      2123  TIP3      OH2            58.2906834082       38.4125481117       68.4883948262  TIP3      1987            0.0000000000
     23310      2123  TIP3      H1             58.1827113632       38.9152828376       67.6781439125  TIP3      1987            0.0000000000
     23311      2123  TIP3      H2             58.0564831070       39.0495325678       69.1860617964  TIP3      1987            0.0000000000
     23312      2124  TIP3      OH2            64.1679150341       38.1141360419       72.5623916657  TIP3      1988            0.0000000000
     23313      2124  TIP3      H1             64.2175852136       39.0837055640       72.5563268743  TIP3      1988            0.0000000000
     23314      2124  TIP3      H2             64.3372115353       37.9500718779       73.5205652478  TIP3      1988            0.0000000000
     23315      2125  TIP3      OH2            58.3484906469       54.1344666109       69.3847589785  TIP3      1989            0.0000000000
     23316      2125  TIP3      H1             57.4132826484       54.1401036000       69.1154188309  TIP3      1989            0.0000000000
     23317      2125  TIP3      H2             58.5636706222       55.0678462146       69.1921221757  TIP3      1989            0.0000000000
     23318      2126  TIP3      OH2            64.1533236411       40.3673388209       69.6662521911  TIP3      1990            0.0000000000
     23319      2126  TIP3      H1             65.0121724612       39.9097770646       69.6513843903  TIP3      1990            0.0000000000
     23320      2126  TIP3      H2             64.3743270628       41.2397478868       70.0393931558  TIP3      1990            0.0000000000
     23321      2127  TIP3      OH2            59.3512521147       38.9463854267       81.9949564750  TIP3      1991            0.0000000000
     23322      2127  TIP3      H1             58.8495866816       38.1083303583       81.9778205024  TIP3      1991            0.0000000000
     23323      2127  TIP3      H2             60.0631222661       38.7518631216       82.6431629317  TIP3      1991            0.0000000000
     23324      2128  TIP3      OH2            61.2852771532       38.4108166126       83.7848686400  TIP3      1992            0.0000000000
     23325      2128  TIP3      H1             61.9326997947       37.7505177854       83.4735942340  TIP3      1992            0.0000000000
     23326      2128  TIP3      H2             60.6179230762       37.8300017281       84.2144850500  TIP3      1992            0.0000000000
     23327      2129  TIP3      OH2            60.5948674488       55.8739038029       66.6012836675  TIP3      1993            0.0000000000
     23328      2129  TIP3      H1             59.9942033912       55.9623890202       67.3572701616  TIP3      1993            0.0000000000
     23329      2129  TIP3      H2             60.3573920770       55.0248449451       66.1830879910  TIP3      1993            0.0000000000
     23330      2130  TIP3      OH2            11.9359069701       65.4760860007       75.1177435225  TIP3      1994            0.0000000000
     23331      2130  TIP3      H1             12.4757229662       64.9340236073       75.7198258789  TIP3      1994            0.0000000000
     23332      2130  TIP3      H2             11.0519863667       65.1181858170       75.2520888436  TIP3      1994            0.0000000000
     23333      2131  TIP3      OH2             3.0085197804       65.2087919770       76.5723127648  TIP3      1995            0.0000000000
     23334      2131  TIP3      H1              3.1506055304       64.5560245429       77.2614532696  TIP3      1995            0.0000000000
     23335      2131  TIP3      H2              3.6019834816       65.9248493384       76.8239289949  TIP3      1995            0.0000000000
     23336      2132  TIP3      OH2             1.5097825371       63.9949214757       70.0909760461  TIP3      1996            0.0000000000
     23337      2132  TIP3      H1              0.6738888805       64.1291673495       70.5598830488  TIP3      1996            0.0000000000
     23338      2132  TIP3      H2              1.2844084177       63.2382184809       69.5153624368  TIP3      1996            0.0000000000
     23339      2133  TIP3      OH2             1.5850570684       65.2010246272       74.0072622547  TIP3      1997            0.0000000000
     23340      2133  TIP3      H1              2.0732026678       64.3700949348       74.2135472482  TIP3      1997            0.0000000000
     23341      2133  TIP3      H2              2.1286071633       65.6425943236       73.3397987630  TIP3      1997            0.0000000000
     23342      2134  TIP3      OH2            17.6661964777       59.6475564771       76.5275026683  TIP3      1998            0.0000000000
     23343      2134  TIP3      H1             17.6658487524       60.3202738956       77.2393220552  TIP3      1998            0.0000000000
     23344      2134  TIP3      H2             18.6124733284       59.6342606040       76.3067709124  TIP3      1998            0.0000000000
     23345      2135  TIP3      OH2            12.4123025596       62.5293554977       76.5895670840  TIP3      1999            0.0000000000
     23346      2135  TIP3      H1             12.4494238622       61.5636096189       76.7604841883  TIP3      1999            0.0000000000
     23347      2135  TIP3      H2             12.3172884053       62.5524291746       75.6103173562  TIP3      1999            0.0000000000
     23348      2136  TIP3      OH2             5.2644405396       60.4809305778       73.6472236312  TIP3      2000            0.0000000000
     23349      2136  TIP3      H1              5.6117187361       61.2768634433       73.1843792224  TIP3      2000            0.0000000000
     23350      2136  TIP3      H2              5.1346516084       59.9067468686       72.8609645170  TIP3      2000            0.0000000000
     23351      2137  TIP3      OH2            13.2473997461       60.2064722828       72.7235874330  TIP3      2001            0.0000000000
     23352      2137  TIP3      H1             13.5187106586       59.8600313061       73.5923148784  TIP3      2001            0.0000000000
     23353      2137  TIP3      H2             14.0826917091       60.6697318164       72.5118722257  TIP3      2001            0.0000000000
     23354      2138  TIP3      OH2             2.8879373469       62.8331714978       74.0577869169  TIP3      2002            0.0000000000
     23355      2138  TIP3      H1              3.2178211300       62.0519590556       74.5385422184  TIP3      2002            0.0000000000
     23356      2138  TIP3      H2              3.0909106756       62.5779218947       73.1263428670  TIP3      2002            0.0000000000
     23357      2139  TIP3      OH2             7.3901313928       64.3872751830       73.9091033932  TIP3      2003            0.0000000000
     23358      2139  TIP3      H1              8.1771068256       63.8194593727       74.0359221505  TIP3      2003            0.0000000000
     23359      2139  TIP3      H2              6.8933255212       63.8023488772       73.2927567958  TIP3      2003            0.0000000000
     23360      2140  TIP3      OH2            17.6940702782       61.0328927414       79.0797445276  TIP3      2004            0.0000000000
     23361      2140  TIP3      H1             17.2135476514       61.8224386395       78.7257214927  TIP3      2004            0.0000000000
     23362      2140  TIP3      H2             18.1727924946       61.4460916562       79.8189321906  TIP3      2004            0.0000000000
     23363      2141  TIP3      OH2             4.9646306305       59.2597096036       77.9445616064  TIP3      2005            0.0000000000
     23364      2141  TIP3      H1              4.3190298341       59.8867773303       77.5742963185  TIP3      2005            0.0000000000
     23365      2141  TIP3      H2              4.5548629488       59.0819765948       78.8145884347  TIP3      2005            0.0000000000
     23366      2142  TIP3      OH2            15.3384482669       60.5678175476       74.5474681392  TIP3      2006            0.0000000000
     23367      2142  TIP3      H1             16.0158080821       59.8769913963       74.4920687849  TIP3      2006            0.0000000000
     23368      2142  TIP3      H2             15.8801390740       61.3153231640       74.8675057210  TIP3      2006            0.0000000000
     23369      2143  TIP3      OH2             4.0873931798       61.2087964242       75.9133042485  TIP3      2007            0.0000000000
     23370      2143  TIP3      H1              4.7465001562       61.8290500356       76.2920772242  TIP3      2007            0.0000000000
     23371      2143  TIP3      H2              4.5804120675       60.9022079455       75.1032163508  TIP3      2007            0.0000000000
     23372      2144  TIP3      OH2            14.9492938500       58.6998922541       77.1291368603  TIP3      2008            0.0000000000
     23373      2144  TIP3      H1             14.1446255604       59.1656435052       76.8273763715  TIP3      2008            0.0000000000
     23374      2144  TIP3      H2             15.6612864045       59.2533675396       76.7534898714  TIP3      2008            0.0000000000
     23375      2145  TIP3      OH2             7.9491928628       56.5715032931       75.4589504702  TIP3      2009            0.0000000000
     23376      2145  TIP3      H1              7.6156778665       55.7033620344       75.1934188799  TIP3      2009            0.0000000000
     23377      2145  TIP3      H2              7.0869894260       57.0388401820       75.5961576049  TIP3      2009            0.0000000000
     23378      2146  TIP3      OH2            10.7168633366       65.5835565536       69.9262029722  TIP3      2010            0.0000000000
     23379      2146  TIP3      H1              9.7830100966       65.5334028516       70.1609737341  TIP3      2010            0.0000000000
     23380      2146  TIP3      H2             10.9639896363       66.3430646449       70.4957438267  TIP3      2010            0.0000000000
     23381      2147  TIP3      OH2            17.5325438438       65.1724306656       77.7177425091  TIP3      2011            0.0000000000
     23382      2147  TIP3      H1             18.2064735381       65.8172152954       78.0264294526  TIP3      2011            0.0000000000
     23383      2147  TIP3      H2             17.4243304111       65.4103662148       76.7820535870  TIP3      2011            0.0000000000
     23384      2148  TIP3      OH2            14.1946547479       65.5918284070       71.5392843171  TIP3      2012            0.0000000000
     23385      2148  TIP3      H1             13.7172366318       64.7884479800       71.8275292122  TIP3      2012            0.0000000000
     23386      2148  TIP3      H2             15.0993972463       65.2499314189       71.4800116317  TIP3      2012            0.0000000000
     23387      2149  TIP3      OH2            14.0053756843       64.0907617337       79.4363708977  TIP3      2013            0.0000000000
     23388      2149  TIP3      H1             14.0454113468       64.6921053566       80.2170273475  TIP3      2013            0.0000000000
     23389      2149  TIP3      H2             13.2220386952       64.4095288691       78.9445621314  TIP3      2013            0.0000000000
     23390      2150  TIP3      OH2             6.2478061523       64.8245227640       76.3552430226  TIP3      2014            0.0000000000
     23391      2150  TIP3      H1              6.4915214605       64.7049945613       75.4031822827  TIP3      2014            0.0000000000
     23392      2150  TIP3      H2              6.3267270814       65.8010159570       76.4063847220  TIP3      2014            0.0000000000
     23393      2151  TIP3      OH2            13.7122763519       63.9162864898       68.3652337131  TIP3      2015            0.0000000000
     23394      2151  TIP3      H1             13.7236380829       63.8260136480       69.3280357291  TIP3      2015            0.0000000000
     23395      2151  TIP3      H2             13.4110728053       64.8466415798       68.3018209457  TIP3      2015            0.0000000000
     23396      2152  TIP3      OH2             4.9981522874       65.7412205939       79.7376491023  TIP3      2016            0.0000000000
     23397      2152  TIP3      H1              4.8770115076       66.0029195574       80.6670469589  TIP3      2016            0.0000000000
     23398      2152  TIP3      H2              4.1498002271       65.3201521361       79.5287368412  TIP3      2016            0.0000000000
     23399      2153  TIP3      OH2             4.7745662966       66.1738206026       70.0726355585  TIP3      2017            0.0000000000
     23400      2153  TIP3      H1              4.3176818320       66.7870021927       69.4626768345  TIP3      2017            0.0000000000
     23401      2153  TIP3      H2              4.3313317894       65.3493965424       69.8269359258  TIP3      2017            0.0000000000
     23402      2154  TIP3      OH2            16.1966327263       62.5482678189       81.5684464159  TIP3      2018            0.0000000000
     23403      2154  TIP3      H1             15.3333024410       62.8107612577       81.2043534968  TIP3      2018            0.0000000000
     23404      2154  TIP3      H2             16.0398645467       61.5926616655       81.6952923093  TIP3      2018            0.0000000000
     23405      2155  TIP3      OH2             5.9039256844       58.1270373368       75.7912889696  TIP3      2019            0.0000000000
     23406      2155  TIP3      H1              5.0367603810       57.8623248526       75.4125264468  TIP3      2019            0.0000000000
     23407      2155  TIP3      H2              5.6126798439       58.8692259297       76.3486298238  TIP3      2019            0.0000000000
     23408      2156  TIP3      OH2            10.8280644355       57.0441145586       79.0957647017  TIP3      2020            0.0000000000
     23409      2156  TIP3      H1             11.2724798393       56.7369864838       79.9194346107  TIP3      2020            0.0000000000
     23410      2156  TIP3      H2              9.8964039476       57.1135067277       79.3868787537  TIP3      2020            0.0000000000
     23411      2157  TIP3      OH2            13.3601687226       61.5568801606       80.4112614116  TIP3      2021            0.0000000000
     23412      2157  TIP3      H1             12.5325878381       61.4480382600       80.9360075579  TIP3      2021            0.0000000000
     23413      2157  TIP3      H2             13.3225217899       62.4946119602       80.1471473012  TIP3      2021            0.0000000000
     23414      2158  TIP3      OH2             5.9449313720       62.3310154098       77.3962204835  TIP3      2022            0.0000000000
     23415      2158  TIP3      H1              5.3460294013       62.4575672321       78.1619884414  TIP3      2022            0.0000000000
     23416      2158  TIP3      H2              5.9921721600       63.2619778750       77.0536856014  TIP3      2022            0.0000000000
     23417      2159  TIP3      OH2             5.7878649939       62.7641611062       72.2378923414  TIP3      2023            0.0000000000
     23418      2159  TIP3      H1              4.8631344003       62.7529834467       71.8838843169  TIP3      2023            0.0000000000
     23419      2159  TIP3      H2              6.3072026122       62.7362973005       71.4046699213  TIP3      2023            0.0000000000
     23420      2160  TIP3      OH2            12.0472940851       63.8263235496       71.3854688359  TIP3      2024            0.0000000000
     23421      2160  TIP3      H1             11.7464023392       64.5405102849       70.7700308306  TIP3      2024            0.0000000000
     23422      2160  TIP3      H2             11.5658904247       63.0612821417       71.0455385645  TIP3      2024            0.0000000000
     23423      2161  TIP3      OH2            11.1185951809       63.2008768747       82.0084282558  TIP3      2025            0.0000000000
     23424      2161  TIP3      H1             10.8125838755       62.4039835143       82.4868395938  TIP3      2025            0.0000000000
     23425      2161  TIP3      H2             11.8629208814       63.4382024733       82.6015067976  TIP3      2025            0.0000000000
     23426      2162  TIP3      OH2            12.2142248134       62.6001207055       73.8899763223  TIP3      2026            0.0000000000
     23427      2162  TIP3      H1             12.0761141246       63.1701636687       73.1010912552  TIP3      2026            0.0000000000
     23428      2162  TIP3      H2             12.5357192672       61.7815178151       73.4708264195  TIP3      2026            0.0000000000
     23429      2163  TIP3      OH2             3.5131650375       62.6498082884       79.0818395449  TIP3      2027            0.0000000000
     23430      2163  TIP3      H1              2.8558607905       62.7247422706       79.8023917086  TIP3      2027            0.0000000000
     23431      2163  TIP3      H2              3.3902243625       61.6936057198       78.8732025222  TIP3      2027            0.0000000000
     23432      2164  TIP3      OH2             1.7731147112       60.2343601696       72.9580277203  TIP3      2028            0.0000000000
     23433      2164  TIP3      H1              1.4779099653       59.7576126891       73.7475077748  TIP3      2028            0.0000000000
     23434      2164  TIP3      H2              1.2302383815       59.8336661257       72.2670526355  TIP3      2028            0.0000000000
     23435      2165  TIP3      OH2             1.5951525005       61.3735091574       68.3841015435  TIP3      2029            0.0000000000
     23436      2165  TIP3      H1              2.5380639220       61.3916828340       68.0973111113  TIP3      2029            0.0000000000
     23437      2165  TIP3      H2              1.2780965209       60.5229635210       68.0346591978  TIP3      2029            0.0000000000
     23438      2166  TIP3      OH2            11.4699720476       64.2902683240       78.3089222290  TIP3      2030            0.0000000000
     23439      2166  TIP3      H1             11.7769458574       63.6020515044       77.6742774651  TIP3      2030            0.0000000000
     23440      2166  TIP3      H2             11.0866818280       63.7055139189       78.9957145549  TIP3      2030            0.0000000000
     23441      2167  TIP3      OH2             7.9560701430       59.7121585978       73.7293602119  TIP3      2031            0.0000000000
     23442      2167  TIP3      H1              7.1356470646       59.8576883099       74.2437352086  TIP3      2031            0.0000000000
     23443      2167  TIP3      H2              8.5238023959       59.1550647645       74.3066185041  TIP3      2031            0.0000000000
     23444      2168  TIP3      OH2             3.3344615606       62.1959970934       71.3937812774  TIP3      2032            0.0000000000
     23445      2168  TIP3      H1              2.7762296067       62.3706871081       70.6147404569  TIP3      2032            0.0000000000
     23446      2168  TIP3      H2              3.2530892947       61.2299580120       71.4595400725  TIP3      2032            0.0000000000
     23447      2169  TIP3      OH2             7.3192419179       62.5012412311       70.0972285294  TIP3      2033            0.0000000000
     23448      2169  TIP3      H1              7.2367565979       61.6857525028       69.5899717032  TIP3      2033            0.0000000000
     23449      2169  TIP3      H2              6.6735960474       63.0628651509       69.6097507641  TIP3      2033            0.0000000000
     23450      2170  TIP3      OH2            12.5367159265       59.6994954692       76.3114660422  TIP3      2034            0.0000000000
     23451      2170  TIP3      H1             11.8909051927       59.3051829214       76.9301316898  TIP3      2034            0.0000000000
     23452      2170  TIP3      H2             12.4250335586       59.1629244671       75.5162906133  TIP3      2034            0.0000000000
     23453      2171  TIP3      OH2             9.4615758705       62.6714899764       74.3142435804  TIP3      2035            0.0000000000
     23454      2171  TIP3      H1             10.4053693192       62.4596167001       74.1673738983  TIP3      2035            0.0000000000
     23455      2171  TIP3      H2              9.1973634170       62.0168023038       74.9870900370  TIP3      2035            0.0000000000
     23456      2172  TIP3      OH2             4.6007731692       58.9021560849       71.2818115482  TIP3      2036            0.0000000000
     23457      2172  TIP3      H1              4.0137251478       58.1730134652       71.5843546428  TIP3      2036            0.0000000000
     23458      2172  TIP3      H2              4.4059697249       58.9349236198       70.3281701044  TIP3      2036            0.0000000000
     23459      2173  TIP3      OH2             8.4431844121       61.3120810958       76.9813855413  TIP3      2037            0.0000000000
     23460      2173  TIP3      H1              7.6548699587       61.8991879643       76.9578544373  TIP3      2037            0.0000000000
     23461      2173  TIP3      H2              9.0245205513       61.7957676528       77.5903287331  TIP3      2037            0.0000000000
     23462      2174  TIP3      OH2             1.4810826775       64.9890060362       79.9952242756  TIP3      2038            0.0000000000
     23463      2174  TIP3      H1              1.6471097938       64.7604459209       80.9299826936  TIP3      2038            0.0000000000
     23464      2174  TIP3      H2              0.5070017951       65.0241698456       79.9707180960  TIP3      2038            0.0000000000
     23465      2175  TIP3      OH2             8.6856117650       64.5691132239       81.9874318464  TIP3      2039            0.0000000000
     23466      2175  TIP3      H1              8.0418264557       64.1915946062       81.3542743596  TIP3      2039            0.0000000000
     23467      2175  TIP3      H2              9.4520429731       63.9651712415       81.8786373981  TIP3      2039            0.0000000000
     23468      2176  TIP3      OH2            17.8690765670       62.1630105363       68.9666023657  TIP3      2040            0.0000000000
     23469      2176  TIP3      H1             17.1497178194       62.4615498292       68.4022272731  TIP3      2040            0.0000000000
     23470      2176  TIP3      H2             18.4786520727       62.9149643019       68.9360201236  TIP3      2040            0.0000000000
     23471      2177  TIP3      OH2             1.5626565386       65.5245713007       66.6219177317  TIP3      2041            0.0000000000
     23472      2177  TIP3      H1              2.3293178773       64.9643240715       66.8187495751  TIP3      2041            0.0000000000
     23473      2177  TIP3      H2              1.5855937994       66.0941422959       67.4093010808  TIP3      2041            0.0000000000
     23474      2178  TIP3      OH2             2.8808873668       60.0560986195       79.6008264707  TIP3      2042            0.0000000000
     23475      2178  TIP3      H1              2.4954508003       60.6170371238       80.3083673563  TIP3      2042            0.0000000000
     23476      2178  TIP3      H2              2.2438968561       59.3162412686       79.5971953183  TIP3      2042            0.0000000000
     23477      2179  TIP3      OH2            11.5319631121       59.7120518497       79.1051938554  TIP3      2043            0.0000000000
     23478      2179  TIP3      H1             12.4068926515       59.7494275596       79.5285871058  TIP3      2043            0.0000000000
     23479      2179  TIP3      H2             11.2999127374       58.7692601423       79.1739353691  TIP3      2043            0.0000000000
     23480      2180  TIP3      OH2            12.6035275585       59.7897519364       70.0917174468  TIP3      2044            0.0000000000
     23481      2180  TIP3      H1             13.4493875249       59.6332306961       69.6571533334  TIP3      2044            0.0000000000
     23482      2180  TIP3      H2             12.8756497163       59.9465147800       71.0201402782  TIP3      2044            0.0000000000
     23483      2181  TIP3      OH2             9.1385962281       60.7144912105       71.0479201079  TIP3      2045            0.0000000000
     23484      2181  TIP3      H1              8.8069341327       61.5647544810       70.7098330053  TIP3      2045            0.0000000000
     23485      2181  TIP3      H2              8.5484393697       60.6156939402       71.8117286591  TIP3      2045            0.0000000000
     23486      2182  TIP3      OH2            10.3506192232       62.1082398204       79.5737878782  TIP3      2046            0.0000000000
     23487      2182  TIP3      H1             10.5864364994       62.3050424002       80.5001955986  TIP3      2046            0.0000000000
     23488      2182  TIP3      H2             10.7771646715       61.2281810025       79.4295922776  TIP3      2046            0.0000000000
     23489      2183  TIP3      OH2            10.5346396321       58.0594314055       71.6771438142  TIP3      2047            0.0000000000
     23490      2183  TIP3      H1              9.9460331256       58.7027959437       72.1180675635  TIP3      2047            0.0000000000
     23491      2183  TIP3      H2             11.1807658517       58.6832962812       71.2901598383  TIP3      2047            0.0000000000
     23492      2184  TIP3      OH2            15.8052761966       59.9289257599       80.7998486782  TIP3      2048            0.0000000000
     23493      2184  TIP3      H1             14.8928006079       60.2299973585       80.6043704411  TIP3      2048            0.0000000000
     23494      2184  TIP3      H2             16.2788941279       60.3379981991       80.0394993066  TIP3      2048            0.0000000000
     23495      2185  TIP3      OH2            15.1892306846       63.9047733579       74.1801432435  TIP3      2049            0.0000000000
     23496      2185  TIP3      H1             14.4108687195       63.3600133706       74.3973467288  TIP3      2049            0.0000000000
     23497      2185  TIP3      H2             15.8716106380       63.5348502818       74.7815960544  TIP3      2049            0.0000000000
     23498      2186  TIP3      OH2             3.5047967500       57.3890875320       75.0037432891  TIP3      2050            0.0000000000
     23499      2186  TIP3      H1              3.2774581963       57.3849468128       74.0439885339  TIP3      2050            0.0000000000
     23500      2186  TIP3      H2              3.0934527237       56.5426838485       75.3114467778  TIP3      2050            0.0000000000
     23501      2187  TIP3      OH2             2.3422501053       64.6420834896       82.7947640171  TIP3      2051            0.0000000000
     23502      2187  TIP3      H1              3.0704740363       64.0930390862       83.1217154254  TIP3      2051            0.0000000000
     23503      2187  TIP3      H2              1.9333350410       64.8875860658       83.6582542307  TIP3      2051            0.0000000000
     23504      2188  TIP3      OH2             7.3920705809       65.6005629785       68.0334048392  TIP3      2052            0.0000000000
     23505      2188  TIP3      H1              6.6730606235       65.4795267511       68.6743809682  TIP3      2052            0.0000000000
     23506      2188  TIP3      H2              7.1613311425       64.8816051434       67.4268246198  TIP3      2052            0.0000000000
     23507      2189  TIP3      OH2             7.0798011665       63.6499816035       79.9249509969  TIP3      2053            0.0000000000
     23508      2189  TIP3      H1              6.3370404946       64.2290672795       79.6820795559  TIP3      2053            0.0000000000
     23509      2189  TIP3      H2              7.7281893016       63.8731133545       79.2185468214  TIP3      2053            0.0000000000
     23510      2190  TIP3      OH2             7.0942650987       61.2401967959       81.0916856420  TIP3      2054            0.0000000000
     23511      2190  TIP3      H1              7.0821110439       60.5995219351       80.3458072054  TIP3      2054            0.0000000000
     23512      2190  TIP3      H2              7.0072327448       62.0982009698       80.6174034462  TIP3      2054            0.0000000000
     23513      2191  TIP3      OH2             7.4329429944       59.5629370114       78.9848712539  TIP3      2055            0.0000000000
     23514      2191  TIP3      H1              8.0662649784       60.0781437063       78.4414169171  TIP3      2055            0.0000000000
     23515      2191  TIP3      H2              6.6158669356       59.6978679516       78.4572755294  TIP3      2055            0.0000000000
     23516      2192  TIP3      OH2             8.7589675851       64.7202395746       78.2141174097  TIP3      2056            0.0000000000
     23517      2192  TIP3      H1              9.7247721709       64.7758793964       78.0992145873  TIP3      2056            0.0000000000
     23518      2192  TIP3      H2              8.4742532775       65.6533867124       78.2492523117  TIP3      2056            0.0000000000
     23519      2193  TIP3      OH2            13.1231161758       63.0827647255       83.8469670410  TIP3      2057            0.0000000000
     23520      2193  TIP3      H1             13.0767598154       62.1245681540       83.9608327111  TIP3      2057            0.0000000000
     23521      2193  TIP3      H2             13.6650547940       63.3550292318       84.6009862047  TIP3      2057            0.0000000000
     23522      2194  TIP3      OH2            14.6523756119       65.5030762909       81.6692168601  TIP3      2058            0.0000000000
     23523      2194  TIP3      H1             14.5671526001       66.3644164657       82.0987294069  TIP3      2058            0.0000000000
     23524      2194  TIP3      H2             15.5322672447       65.2432567400       81.9941113924  TIP3      2058            0.0000000000
     23525      2195  TIP3      OH2             5.5465002367       61.9556585801       83.2004846254  TIP3      2059            0.0000000000
     23526      2195  TIP3      H1              4.7155577777       61.4622690090       83.0497153109  TIP3      2059            0.0000000000
     23527      2195  TIP3      H2              6.0833259946       61.6764022156       82.4250908206  TIP3      2059            0.0000000000
     23528      2196  TIP3      OH2             7.9547918924       56.9090074221       78.9992661558  TIP3      2060            0.0000000000
     23529      2196  TIP3      H1              7.7275073064       57.8694633083       79.0241884962  TIP3      2060            0.0000000000
     23530      2196  TIP3      H2              7.0929603750       56.5176495966       78.8002678145  TIP3      2060            0.0000000000
     23531      2197  TIP3      OH2             9.0152383031       61.2664035019       82.9537803612  TIP3      2061            0.0000000000
     23532      2197  TIP3      H1              8.3898636825       61.1456459042       83.6879366136  TIP3      2061            0.0000000000
     23533      2197  TIP3      H2              8.3786228603       61.3148878220       82.2000184782  TIP3      2061            0.0000000000
     23534      2198  TIP3      OH2            11.4001090274       60.4824057592       82.1361841503  TIP3      2062            0.0000000000
     23535      2198  TIP3      H1             10.4343590490       60.5558478178       82.3218199586  TIP3      2062            0.0000000000
     23536      2198  TIP3      H2             11.7117210817       59.9290180610       82.8769268130  TIP3      2062            0.0000000000
     23537      2199  TIP3      OH2            12.5436014533       59.0662545258       84.2577570813  TIP3      2063            0.0000000000
     23538      2199  TIP3      H1             12.7322918662       58.1107113489       84.0866704463  TIP3      2063            0.0000000000
     23539      2199  TIP3      H2             11.7959224657       59.0366110735       84.8892382391  TIP3      2063            0.0000000000
     23540      2200  TIP3      OH2             3.1400002599       60.2507170020       83.1193280780  TIP3      2064            0.0000000000
     23541      2200  TIP3      H1              3.0557587411       59.3453846193       82.7551795313  TIP3      2064            0.0000000000
     23542      2200  TIP3      H2              2.9289771745       60.0560783033       84.0676425436  TIP3      2064            0.0000000000
     23543      2201  TIP3      OH2             7.6554734480       56.4842156736       81.9260449322  TIP3      2065            0.0000000000
     23544      2201  TIP3      H1              8.4812907198       56.0075667114       82.1151528979  TIP3      2065            0.0000000000
     23545      2201  TIP3      H2              7.6312189699       56.3538493241       80.9606286499  TIP3      2065            0.0000000000
     23546      2202  TIP3      OH2             8.0479030133       58.0101337365       84.6630598902  TIP3      2066            0.0000000000
     23547      2202  TIP3      H1              7.8242118097       57.4917653157       83.8688742271  TIP3      2066            0.0000000000
     23548      2202  TIP3      H2              7.5030444919       58.8131903007       84.4999104567  TIP3      2066            0.0000000000
     23549      2203  TIP3      OH2            18.5344790884       65.6923718514       71.7633910623  TIP3      2067            0.0000000000
     23550      2203  TIP3      H1             17.8318631101       65.0052077351       71.8515175193  TIP3      2067            0.0000000000
     23551      2203  TIP3      H2             19.1080939266       65.4740046649       72.5170735455  TIP3      2067            0.0000000000
     23552      2204  TIP3      OH2            16.6762230977       63.7660994675       71.9861078378  TIP3      2068            0.0000000000
     23553      2204  TIP3      H1             16.6083884502       62.7972167041       71.9313312275  TIP3      2068            0.0000000000
     23554      2204  TIP3      H2             16.1536936268       63.8955083253       72.8141722323  TIP3      2068            0.0000000000
     23555      2205  TIP3      OH2            17.1334978975       65.6402684729       82.8819857844  TIP3      2069            0.0000000000
     23556      2205  TIP3      H1             17.4766785647       64.7509505290       82.6842440054  TIP3      2069            0.0000000000
     23557      2205  TIP3      H2             17.2332608264       66.0859202945       82.0103178102  TIP3      2069            0.0000000000
     23558      2206  TIP3      OH2            18.6386340151       63.2531331061       82.6668205858  TIP3      2070            0.0000000000
     23559      2206  TIP3      H1             17.8568074866       62.9347198468       82.1594092067  TIP3      2070            0.0000000000
     23560      2206  TIP3      H2             19.3323362793       62.7085973224       82.2378847744  TIP3      2070            0.0000000000
     23561      2207  TIP3      OH2            15.3336147836       61.5091785165       71.3222520935  TIP3      2071            0.0000000000
     23562      2207  TIP3      H1             15.7499634730       60.6208001448       71.2275073528  TIP3      2071            0.0000000000
     23563      2207  TIP3      H2             15.6604434461       61.9304645657       70.5204762517  TIP3      2071            0.0000000000
     23564      2208  TIP3      OH2            16.9602069832       62.3698148099       75.7530916378  TIP3      2072            0.0000000000
     23565      2208  TIP3      H1             17.8781909856       62.3523347882       76.1065686780  TIP3      2072            0.0000000000
     23566      2208  TIP3      H2             16.4651632446       62.4932383674       76.5914827195  TIP3      2072            0.0000000000
     23567      2209  TIP3      OH2            16.2135562113       63.0182190939       78.3431061930  TIP3      2073            0.0000000000
     23568      2209  TIP3      H1             15.3418575191       63.3206730361       78.6865211058  TIP3      2073            0.0000000000
     23569      2209  TIP3      H2             16.6735352776       63.8883475985       78.1998377260  TIP3      2073            0.0000000000
     23570      2210  TIP3      OH2             1.6092873550       61.7463622764       81.4903366217  TIP3      2074            0.0000000000
     23571      2210  TIP3      H1              2.1602465480       61.2560872743       82.1389818683  TIP3      2074            0.0000000000
     23572      2210  TIP3      H2              0.7675006745       61.7095094769       81.9839210211  TIP3      2074            0.0000000000
     23573      2211  TIP3      OH2            18.5031568440       57.3890381635       83.5862529045  TIP3      2075            0.0000000000
     23574      2211  TIP3      H1             19.0040650991       56.6036549156       83.2608704657  TIP3      2075            0.0000000000
     23575      2211  TIP3      H2             18.7400240910       58.0655209771       82.9085941803  TIP3      2075            0.0000000000
     23576      2212  TIP3      OH2            16.3862096216       59.0436959681       70.7854096207  TIP3      2076            0.0000000000
     23577      2212  TIP3      H1             16.7494782230       58.6150745809       71.5853340948  TIP3      2076            0.0000000000
     23578      2212  TIP3      H2             15.8946399663       58.2972101907       70.3802415827  TIP3      2076            0.0000000000
     23579      2213  TIP3      OH2             2.0744056276       59.5246992102       75.9053504481  TIP3      2077            0.0000000000
     23580      2213  TIP3      H1              2.5790535327       58.7359382282       75.6163819909  TIP3      2077            0.0000000000
     23581      2213  TIP3      H2              2.7899339220       60.1923896647       75.9713807186  TIP3      2077            0.0000000000
     23582      2214  TIP3      OH2             0.4998815320       63.2734082684       76.6267263142  TIP3      2078            0.0000000000
     23583      2214  TIP3      H1              1.3226159454       62.7654979811       76.7319395536  TIP3      2078            0.0000000000
     23584      2214  TIP3      H2              0.8313642803       64.1903663510       76.5785714273  TIP3      2078            0.0000000000
     23585      2215  TIP3      OH2            18.3389663156       59.1392435705       81.5892455778  TIP3      2079            0.0000000000
     23586      2215  TIP3      H1             17.4648990913       59.5738674746       81.6013671534  TIP3      2079            0.0000000000
     23587      2215  TIP3      H2             18.0611376326       58.3849884983       81.0218078833  TIP3      2079            0.0000000000
     23588      2216  TIP3      OH2            17.8670305951       58.8104888180       67.2847003851  TIP3      2080            0.0000000000
     23589      2216  TIP3      H1             18.2591972941       58.1391855155       66.6745637190  TIP3      2080            0.0000000000
     23590      2216  TIP3      H2             18.6907639656       59.2116455372       67.6133432646  TIP3      2080            0.0000000000
     23591      2217  TIP3      OH2             0.4651182932       59.2687010658       70.2572666859  TIP3      2081            0.0000000000
     23592      2217  TIP3      H1              0.2633102297       59.2791125720       69.2910250851  TIP3      2081            0.0000000000
     23593      2217  TIP3      H2              1.3886403606       58.9800808081       70.2474748718  TIP3      2081            0.0000000000
     23594      2218  TIP3      OH2             0.5528137445       57.4671118229       78.4764143702  TIP3      2082            0.0000000000
     23595      2218  TIP3      H1             -0.3195560849       57.2101260798       78.8318307829  TIP3      2082            0.0000000000
     23596      2218  TIP3      H2              0.2998473354       57.9397201413       77.6684219738  TIP3      2082            0.0000000000
     23597      2219  TIP3      OH2            17.1319985256       56.8936928486       80.2488537816  TIP3      2083            0.0000000000
     23598      2219  TIP3      H1             16.4814271444       57.3068475540       79.6544529149  TIP3      2083            0.0000000000
     23599      2219  TIP3      H2             17.2248920433       55.9875253884       79.8728758925  TIP3      2083            0.0000000000
     23600      2220  TIP3      OH2             9.9878812447       57.9896751338       74.7116109454  TIP3      2084            0.0000000000
     23601      2220  TIP3      H1              9.2474210459       57.3893561377       74.9980955562  TIP3      2084            0.0000000000
     23602      2220  TIP3      H2             10.5535754617       57.4123636254       74.1926441692  TIP3      2084            0.0000000000
     23603      2221  TIP3      OH2            15.7737858237       56.4097462912       74.4534855563  TIP3      2085            0.0000000000
     23604      2221  TIP3      H1             16.3387931832       57.1352130738       74.1143749395  TIP3      2085            0.0000000000
     23605      2221  TIP3      H2             14.8712617786       56.7074704720       74.2006655298  TIP3      2085            0.0000000000
     23606      2222  TIP3      OH2            17.4387419910       58.1293692383       73.2287017699  TIP3      2086            0.0000000000
     23607      2222  TIP3      H1             18.0374022121       57.4316252401       72.8768978474  TIP3      2086            0.0000000000
     23608      2222  TIP3      H2             18.0821231787       58.8542225879       73.4074559453  TIP3      2086            0.0000000000
     23609      2223  TIP3      OH2             2.9141293450       57.0387641525       72.3164416426  TIP3      2087            0.0000000000
     23610      2223  TIP3      H1              2.0548895824       56.7790166571       71.9155324954  TIP3      2087            0.0000000000
     23611      2223  TIP3      H2              3.4387040337       56.2160243541       72.1531212490  TIP3      2087            0.0000000000
     23612      2224  TIP3      OH2             2.5059253060       57.9855436938       69.1171457061  TIP3      2088            0.0000000000
     23613      2224  TIP3      H1              2.4562948885       57.5931236245       68.2300755380  TIP3      2088            0.0000000000
     23614      2224  TIP3      H2              1.7192455651       57.5603477498       69.4944380796  TIP3      2088            0.0000000000
     23615      2225  TIP3      OH2             7.3786159725       56.6315903942       72.5313411842  TIP3      2089            0.0000000000
     23616      2225  TIP3      H1              7.9989023473       57.0105337813       71.8986359818  TIP3      2089            0.0000000000
     23617      2225  TIP3      H2              7.2639958035       57.3450876403       73.1714318456  TIP3      2089            0.0000000000
     23618      2226  TIP3      OH2            13.1863069903       56.7722629049       73.6520866586  TIP3      2090            0.0000000000
     23619      2226  TIP3      H1             12.5891937971       57.0696476904       72.9520332252  TIP3      2090            0.0000000000
     23620      2226  TIP3      H2             12.7658641133       55.9580683176       73.9812465398  TIP3      2090            0.0000000000
     23621      2227  TIP3      OH2            14.8557286536       56.9660666622       69.7757771189  TIP3      2091            0.0000000000
     23622      2227  TIP3      H1             14.7296804220       57.1507106083       68.8461524165  TIP3      2091            0.0000000000
     23623      2227  TIP3      H2             14.1748836935       56.2793339647       69.9671431370  TIP3      2091            0.0000000000
     23624      2228  TIP3      OH2             8.7744562562       58.3051308000       69.5555202441  TIP3      2092            0.0000000000
     23625      2228  TIP3      H1              9.5272772443       57.9551793625       70.0522922000  TIP3      2092            0.0000000000
     23626      2228  TIP3      H2              8.7572061530       59.2387733283       69.8475831363  TIP3      2092            0.0000000000
     23627      2229  TIP3      OH2             2.6870956292       57.5288890358       82.0117673033  TIP3      2093            0.0000000000
     23628      2229  TIP3      H1              2.2188766014       56.6949389280       82.1697572390  TIP3      2093            0.0000000000
     23629      2229  TIP3      H2              3.5082616235       57.4066343431       82.5407518119  TIP3      2093            0.0000000000
     23630      2230  TIP3      OH2             4.7130327129       57.1707402626       83.8213040490  TIP3      2094            0.0000000000
     23631      2230  TIP3      H1              5.4743687901       56.7115646773       83.4213769159  TIP3      2094            0.0000000000
     23632      2230  TIP3      H2              4.3968808611       56.4488327828       84.4097057927  TIP3      2094            0.0000000000
     23633      2231  TIP3      OH2            13.3686515216       56.6056926717       83.7983647061  TIP3      2095            0.0000000000
     23634      2231  TIP3      H1             13.5104747899       56.0388007400       84.5850121957  TIP3      2095            0.0000000000
     23635      2231  TIP3      H2             14.2606604733       56.5844746664       83.3850606260  TIP3      2095            0.0000000000
     23636      2232  TIP3      OH2            30.6874858192       65.5784352219       75.5100758238  TIP3      2096            0.0000000000
     23637      2232  TIP3      H1             30.7797000937       65.2430584069       76.4166149689  TIP3      2096            0.0000000000
     23638      2232  TIP3      H2             29.7815261434       65.3098003254       75.3154185205  TIP3      2096            0.0000000000
     23639      2233  TIP3      OH2            22.0302800425       65.3255556103       77.0002189874  TIP3      2097            0.0000000000
     23640      2233  TIP3      H1             22.0938861735       64.4147857335       77.3473663546  TIP3      2097            0.0000000000
     23641      2233  TIP3      H2             22.3957825507       65.8371988562       77.7430575936  TIP3      2097            0.0000000000
     23642      2234  TIP3      OH2            20.1148614918       62.9610953533       70.8872988064  TIP3      2098            0.0000000000
     23643      2234  TIP3      H1             19.8470843463       63.8543047562       71.1510955563  TIP3      2098            0.0000000000
     23644      2234  TIP3      H2             19.2950838071       62.4782000585       71.0742348997  TIP3      2098            0.0000000000
     23645      2235  TIP3      OH2            20.9982571052       65.0798842935       73.2188192425  TIP3      2099            0.0000000000
     23646      2235  TIP3      H1             21.1003435720       64.2931679370       73.8082935130  TIP3      2099            0.0000000000
     23647      2235  TIP3      H2             21.6099880652       64.8761038260       72.4817641759  TIP3      2099            0.0000000000
     23648      2236  TIP3      OH2            36.4926064125       60.1805041422       77.0283605314  TIP3      2100            0.0000000000
     23649      2236  TIP3      H1             37.1186214188       60.2573870764       77.7664793764  TIP3      2100            0.0000000000
     23650      2236  TIP3      H2             36.8045297400       59.3367383155       76.6429872215  TIP3      2100            0.0000000000
     23651      2237  TIP3      OH2            31.2561279138       62.6501636681       76.7177211021  TIP3      2101            0.0000000000
     23652      2237  TIP3      H1             31.2396548333       61.6723100266       76.7764752518  TIP3      2101            0.0000000000
     23653      2237  TIP3      H2             31.3708847151       62.7497303469       75.7549567437  TIP3      2101            0.0000000000
     23654      2238  TIP3      OH2            24.5251398074       60.2538510069       73.7372760609  TIP3      2102            0.0000000000
     23655      2238  TIP3      H1             24.7183764679       61.0020736571       73.1423964001  TIP3      2102            0.0000000000
     23656      2238  TIP3      H2             24.1137837990       59.6326718818       73.1031338482  TIP3      2102            0.0000000000
     23657      2239  TIP3      OH2            32.3456490230       60.6723785578       72.4813606436  TIP3      2103            0.0000000000
     23658      2239  TIP3      H1             32.8700486004       60.4940206808       73.2970137380  TIP3      2103            0.0000000000
     23659      2239  TIP3      H2             32.8449886298       61.4026283617       72.0755934995  TIP3      2103            0.0000000000
     23660      2240  TIP3      OH2            21.1018897067       62.6879909205       74.5724720352  TIP3      2104            0.0000000000
     23661      2240  TIP3      H1             21.7022088065       62.2272451546       75.1919712646  TIP3      2104            0.0000000000
     23662      2240  TIP3      H2             21.3874362546       62.2571886737       73.7351223615  TIP3      2104            0.0000000000
     23663      2241  TIP3      OH2            26.2397113744       64.3496769202       73.9117931149  TIP3      2105            0.0000000000
     23664      2241  TIP3      H1             27.0826189373       63.8401051503       73.9979169293  TIP3      2105            0.0000000000
     23665      2241  TIP3      H2             25.7112144358       63.7386586945       73.3743535906  TIP3      2105            0.0000000000
     23666      2242  TIP3      OH2            37.2932132225       61.4200929108       79.6307357030  TIP3      2106            0.0000000000
     23667      2242  TIP3      H1             36.5993410399       61.8127956638       79.0647834497  TIP3      2106            0.0000000000
     23668      2242  TIP3      H2             36.7450608704       60.9701697660       80.2820143102  TIP3      2106            0.0000000000
     23669      2243  TIP3      OH2            23.7369167813       59.4022609878       78.0228715562  TIP3      2107            0.0000000000
     23670      2243  TIP3      H1             23.2500189482       59.9259083706       77.3550028513  TIP3      2107            0.0000000000
     23671      2243  TIP3      H2             23.1179942332       59.4932992753       78.7771137020  TIP3      2107            0.0000000000
     23672      2244  TIP3      OH2            34.1710045749       60.3844957365       74.6122391531  TIP3      2108            0.0000000000
     23673      2244  TIP3      H1             34.7155268288       59.6233832572       74.3637252487  TIP3      2108            0.0000000000
     23674      2244  TIP3      H2             34.7859419254       60.9101158634       75.1614378237  TIP3      2108            0.0000000000
     23675      2245  TIP3      OH2            23.0310242604       61.2615116502       75.9553664777  TIP3      2109            0.0000000000
     23676      2245  TIP3      H1             23.6747140281       61.8279141568       76.4402196929  TIP3      2109            0.0000000000
     23677      2245  TIP3      H2             23.6038294212       60.9206482752       75.2277918714  TIP3      2109            0.0000000000
     23678      2246  TIP3      OH2            33.9252373730       59.2288940398       77.6231285243  TIP3      2110            0.0000000000
     23679      2246  TIP3      H1             33.4353203131       59.4815506569       76.8276284961  TIP3      2110            0.0000000000
     23680      2246  TIP3      H2             34.8223903972       59.5530939490       77.4005993828  TIP3      2110            0.0000000000
     23681      2247  TIP3      OH2            27.0100221197       56.8246908333       75.2522898299  TIP3      2111            0.0000000000
     23682      2247  TIP3      H1             26.7071882447       55.9007611082       75.3339167464  TIP3      2111            0.0000000000
     23683      2247  TIP3      H2             26.1942831361       57.3125722983       75.5417295752  TIP3      2111            0.0000000000
     23684      2248  TIP3      OH2            30.2162105874       65.5249213978       69.5292008237  TIP3      2112            0.0000000000
     23685      2248  TIP3      H1             30.1384881177       66.4836149131       69.5319750972  TIP3      2112            0.0000000000
     23686      2248  TIP3      H2             31.0205800682       65.3844586215       68.9766809910  TIP3      2112            0.0000000000
     23687      2249  TIP3      OH2            36.7525713348       64.6733648575       78.2257420306  TIP3      2113            0.0000000000
     23688      2249  TIP3      H1             37.1556357378       65.5712084247       78.2151654256  TIP3      2113            0.0000000000
     23689      2249  TIP3      H2             37.2695460628       64.2066718158       77.5153801050  TIP3      2113            0.0000000000
     23690      2250  TIP3      OH2            33.1961646608       64.8900929081       70.7713208654  TIP3      2114            0.0000000000
     23691      2250  TIP3      H1             32.6696922362       64.3193092340       71.3630069578  TIP3      2114            0.0000000000
     23692      2250  TIP3      H2             34.1003108370       64.7535911597       71.1264810216  TIP3      2114            0.0000000000
     23693      2251  TIP3      OH2            32.6313473363       63.9904067478       79.5923546751  TIP3      2115            0.0000000000
     23694      2251  TIP3      H1             32.6353518866       64.7116002818       80.2569449211  TIP3      2115            0.0000000000
     23695      2251  TIP3      H2             31.8815414684       64.2489368244       79.0131854314  TIP3      2115            0.0000000000
     23696      2252  TIP3      OH2            25.1279365507       65.0000837183       76.3738869099  TIP3      2116            0.0000000000
     23697      2252  TIP3      H1             25.3993250907       64.7468515731       75.4655654286  TIP3      2116            0.0000000000
     23698      2252  TIP3      H2             25.0397691346       65.9729078392       76.2354247325  TIP3      2116            0.0000000000
     23699      2253  TIP3      OH2            32.5055242607       64.8358717332       68.1634625282  TIP3      2117            0.0000000000
     23700      2253  TIP3      H1             32.9670893583       64.9635583988       69.0210206188  TIP3      2117            0.0000000000
     23701      2253  TIP3      H2             33.1988825712       65.0879716329       67.5178326083  TIP3      2117            0.0000000000
     23702      2254  TIP3      OH2            23.4271967890       65.9134360089       79.7598473154  TIP3      2118            0.0000000000
     23703      2254  TIP3      H1             23.7669384209       66.3833754155       80.5372117887  TIP3      2118            0.0000000000
     23704      2254  TIP3      H2             22.6209300239       65.4931794124       80.1037218974  TIP3      2118            0.0000000000
     23705      2255  TIP3      OH2            36.0047066164       56.7109216118       69.1214277724  TIP3      2119            0.0000000000
     23706      2255  TIP3      H1             35.0535203677       56.7589472864       68.9706272598  TIP3      2119            0.0000000000
     23707      2255  TIP3      H2             36.3435341503       57.4981458265       68.6317295713  TIP3      2119            0.0000000000
     23708      2256  TIP3      OH2            22.6762695220       65.1962889079       70.8879700792  TIP3      2120            0.0000000000
     23709      2256  TIP3      H1             23.3231041766       65.7689754930       70.4400009723  TIP3      2120            0.0000000000
     23710      2256  TIP3      H2             22.6095740643       64.4543018267       70.2713013433  TIP3      2120            0.0000000000
     23711      2257  TIP3      OH2            35.0685334116       62.7481702485       81.6570501962  TIP3      2121            0.0000000000
     23712      2257  TIP3      H1             34.5153620870       62.9204401007       80.8752219983  TIP3      2121            0.0000000000
     23713      2257  TIP3      H2             35.0109401412       61.7751669675       81.7000384160  TIP3      2121            0.0000000000
     23714      2258  TIP3      OH2            24.9626225153       58.1259578516       76.1420694129  TIP3      2122            0.0000000000
     23715      2258  TIP3      H1             24.2236531478       58.3311041156       75.5570664053  TIP3      2122            0.0000000000
     23716      2258  TIP3      H2             24.6096403896       58.4843763547       76.9912972843  TIP3      2122            0.0000000000
     23717      2259  TIP3      OH2            29.7829751008       57.2865974947       79.4017420676  TIP3      2123            0.0000000000
     23718      2259  TIP3      H1             30.2232688731       56.8170200721       80.1463469334  TIP3      2123            0.0000000000
     23719      2259  TIP3      H2             28.8433639803       57.3134002528       79.6830275316  TIP3      2123            0.0000000000
     23720      2260  TIP3      OH2            32.2242750892       61.4897325843       80.6954465066  TIP3      2124            0.0000000000
     23721      2260  TIP3      H1             31.3506102085       61.4163731773       81.1563650817  TIP3      2124            0.0000000000
     23722      2260  TIP3      H2             32.1289190760       62.3115837453       80.1594564747  TIP3      2124            0.0000000000
     23723      2261  TIP3      OH2            34.7441187292       65.7209583849       66.3884411869  TIP3      2125            0.0000000000
     23724      2261  TIP3      H1             35.6464065778       65.3146943091       66.3747174723  TIP3      2125            0.0000000000
     23725      2261  TIP3      H2             34.8482682309       66.3083656892       67.1486767218  TIP3      2125            0.0000000000
     23726      2262  TIP3      OH2            29.3542840907       59.7178623727       67.3684049600  TIP3      2126            0.0000000000
     23727      2262  TIP3      H1             28.6136189138       59.1981286886       67.7059396567  TIP3      2126            0.0000000000
     23728      2262  TIP3      H2             29.1738871276       59.6671275685       66.3837816937  TIP3      2126            0.0000000000
     23729      2263  TIP3      OH2            24.7044470464       62.5771365704       77.6176152617  TIP3      2127            0.0000000000
     23730      2263  TIP3      H1             23.9105708107       62.7665338012       78.1574834174  TIP3      2127            0.0000000000
     23731      2263  TIP3      H2             24.7608241935       63.3753807191       77.0393484290  TIP3      2127            0.0000000000
     23732      2264  TIP3      OH2            24.7693577090       62.4047967825       71.9431691338  TIP3      2128            0.0000000000
     23733      2264  TIP3      H1             23.8106510989       62.2011590758       72.0379378438  TIP3      2128            0.0000000000
     23734      2264  TIP3      H2             24.9119258481       62.1757348145       71.0081746001  TIP3      2128            0.0000000000
     23735      2265  TIP3      OH2            30.6323739031       63.4745012418       71.2330155986  TIP3      2129            0.0000000000
     23736      2265  TIP3      H1             30.2312493768       64.1872159198       70.6809820441  TIP3      2129            0.0000000000
     23737      2265  TIP3      H2             31.0768357819       62.9326690864       70.5559646331  TIP3      2129            0.0000000000
     23738      2266  TIP3      OH2            29.8651689644       63.3667055546       82.5104713678  TIP3      2130            0.0000000000
     23739      2266  TIP3      H1             29.4043532664       62.6040357476       82.9017660178  TIP3      2130            0.0000000000
     23740      2266  TIP3      H2             30.7589555296       63.2673984508       82.8982627794  TIP3      2130            0.0000000000
     23741      2267  TIP3      OH2            31.0974404429       62.8513152656       73.8887700299  TIP3      2131            0.0000000000
     23742      2267  TIP3      H1             30.8806587784       63.2817949302       73.0348511062  TIP3      2131            0.0000000000
     23743      2267  TIP3      H2             31.2196737339       61.9403753911       73.5734690945  TIP3      2131            0.0000000000
     23744      2268  TIP3      OH2            22.1981187567       62.7963515487       78.6494341950  TIP3      2132            0.0000000000
     23745      2268  TIP3      H1             22.3237218988       62.8415574159       79.6140069402  TIP3      2132            0.0000000000
     23746      2268  TIP3      H2             21.9318738424       61.8580893322       78.5454377306  TIP3      2132            0.0000000000
     23747      2269  TIP3      OH2            19.4130479411       59.9301873036       73.1862524585  TIP3      2133            0.0000000000
     23748      2269  TIP3      H1             20.0521611735       59.7104743624       73.8920194440  TIP3      2133            0.0000000000
     23749      2269  TIP3      H2             19.8095640461       59.5809824265       72.3691536383  TIP3      2133            0.0000000000
     23750      2270  TIP3      OH2            19.9840382373       60.3535523732       68.3233955785  TIP3      2134            0.0000000000
     23751      2270  TIP3      H1             20.7841388809       60.8105713307       68.0393979784  TIP3      2134            0.0000000000
     23752      2270  TIP3      H2             19.3074046027       61.0594996846       68.3517811460  TIP3      2134            0.0000000000
     23753      2271  TIP3      OH2            30.1803516147       64.3101795344       78.4314717078  TIP3      2135            0.0000000000
     23754      2271  TIP3      H1             30.4245681693       63.6691117539       77.7090226459  TIP3      2135            0.0000000000
     23755      2271  TIP3      H2             29.7932439705       63.6733788909       79.0850357725  TIP3      2135            0.0000000000
     23756      2272  TIP3      OH2            28.0570292344       60.7341181206       73.1404083746  TIP3      2136            0.0000000000
     23757      2272  TIP3      H1             27.1667458507       60.6637231147       73.5212955228  TIP3      2136            0.0000000000
     23758      2272  TIP3      H2             28.4885962441       59.9610455174       73.5809780303  TIP3      2136            0.0000000000
     23759      2273  TIP3      OH2            22.2152455808       61.7673585708       72.2433676970  TIP3      2137            0.0000000000
     23760      2273  TIP3      H1             21.5625776074       62.1110451492       71.5898435406  TIP3      2137            0.0000000000
     23761      2273  TIP3      H2             22.3055120762       60.8163331713       71.9949698645  TIP3      2137            0.0000000000
     23762      2274  TIP3      OH2            25.5980406095       62.1609965718       69.3307380453  TIP3      2138            0.0000000000
     23763      2274  TIP3      H1             26.4926866944       61.8027175738       69.5291832157  TIP3      2138            0.0000000000
     23764      2274  TIP3      H2             25.7019923958       63.0713578744       69.6419263538  TIP3      2138            0.0000000000
     23765      2275  TIP3      OH2            31.4607859877       59.8212590638       76.3071189600  TIP3      2139            0.0000000000
     23766      2275  TIP3      H1             31.2692555618       59.4522465765       77.1922061607  TIP3      2139            0.0000000000
     23767      2275  TIP3      H2             31.6144550229       59.0560289224       75.7359935533  TIP3      2139            0.0000000000
     23768      2276  TIP3      OH2            28.4861429590       62.9693070001       74.6733629903  TIP3      2140            0.0000000000
     23769      2276  TIP3      H1             29.4096000143       62.9860689655       74.3732241956  TIP3      2140            0.0000000000
     23770      2276  TIP3      H2             28.3908178919       62.0302985728       74.8962706134  TIP3      2140            0.0000000000
     23771      2277  TIP3      OH2            22.9330103370       59.2215742227       71.6793443506  TIP3      2141            0.0000000000
     23772      2277  TIP3      H1             22.4554910025       58.4136535946       71.9545024723  TIP3      2141            0.0000000000
     23773      2277  TIP3      H2             23.5725771348       58.8502476505       71.0453499388  TIP3      2141            0.0000000000
     23774      2278  TIP3      OH2            27.3546356366       61.5260030076       77.2866353324  TIP3      2142            0.0000000000
     23775      2278  TIP3      H1             26.6858616085       62.2254803980       77.1947490221  TIP3      2142            0.0000000000
     23776      2278  TIP3      H2             27.9963363907       61.9422957553       77.8783844279  TIP3      2142            0.0000000000
     23777      2279  TIP3      OH2            31.9135346235       60.4473141285       66.8195101388  TIP3      2143            0.0000000000
     23778      2279  TIP3      H1             31.0301574713       60.0171228943       66.8818646901  TIP3      2143            0.0000000000
     23779      2279  TIP3      H2             31.7937278934       61.1927129849       67.4358041475  TIP3      2143            0.0000000000
     23780      2280  TIP3      OH2            32.2275874462       62.2471294241       68.9908601013  TIP3      2144            0.0000000000
     23781      2280  TIP3      H1             33.0037966831       62.3656492226       69.5735499467  TIP3      2144            0.0000000000
     23782      2280  TIP3      H2             32.2488133596       63.1109172297       68.5269337484  TIP3      2144            0.0000000000
     23783      2281  TIP3      OH2            20.0846319483       65.6938172374       80.4998428248  TIP3      2145            0.0000000000
     23784      2281  TIP3      H1             20.2190504986       64.8786854112       81.0122484880  TIP3      2145            0.0000000000
     23785      2281  TIP3      H2             19.1675203322       65.9462480343       80.7164621733  TIP3      2145            0.0000000000
     23786      2282  TIP3      OH2            26.9211651502       64.5202947044       82.5860029344  TIP3      2146            0.0000000000
     23787      2282  TIP3      H1             26.2464096280       64.2336139036       81.9287179948  TIP3      2146            0.0000000000
     23788      2282  TIP3      H2             27.7033481965       64.0653289390       82.2266776803  TIP3      2146            0.0000000000
     23789      2283  TIP3      OH2            36.0812117921       63.0083913247       68.4089912121  TIP3      2147            0.0000000000
     23790      2283  TIP3      H1             36.1651615359       62.9212410671       67.4470387971  TIP3      2147            0.0000000000
     23791      2283  TIP3      H2             36.8858589621       63.5489870298       68.5355054968  TIP3      2147            0.0000000000
     23792      2284  TIP3      OH2            22.0895711308       60.2048494182       79.9450661637  TIP3      2148            0.0000000000
     23793      2284  TIP3      H1             21.2457977857       60.5734741357       80.2790150444  TIP3      2148            0.0000000000
     23794      2284  TIP3      H2             22.2197545121       59.5033498952       80.6081967878  TIP3      2148            0.0000000000
     23795      2285  TIP3      OH2            30.6732584805       59.7419004599       79.0028560692  TIP3      2149            0.0000000000
     23796      2285  TIP3      H1             31.3133413050       59.8828275928       79.7232158702  TIP3      2149            0.0000000000
     23797      2285  TIP3      H2             30.3315341153       58.8408134529       79.1983297212  TIP3      2149            0.0000000000
     23798      2286  TIP3      OH2            30.8069783551       59.4010509499       70.4442922030  TIP3      2150            0.0000000000
     23799      2286  TIP3      H1             30.8777383121       60.0534769565       69.7287675347  TIP3      2150            0.0000000000
     23800      2286  TIP3      H2             31.4417616082       59.7534373988       71.1073143113  TIP3      2150            0.0000000000
     23801      2287  TIP3      OH2            28.0026784732       61.4481237397       70.4668338722  TIP3      2151            0.0000000000
     23802      2287  TIP3      H1             28.9375941276       61.6762435421       70.3766539577  TIP3      2151            0.0000000000
     23803      2287  TIP3      H2             27.9325714489       61.2152923028       71.4270080169  TIP3      2151            0.0000000000
     23804      2288  TIP3      OH2            29.1635906694       62.1663781331       79.7917745444  TIP3      2152            0.0000000000
     23805      2288  TIP3      H1             28.9771626502       62.0969021470       80.7411523149  TIP3      2152            0.0000000000
     23806      2288  TIP3      H2             29.7442451496       61.3916126911       79.6455629385  TIP3      2152            0.0000000000
     23807      2289  TIP3      OH2            28.8003540386       57.9865558478       71.4607700026  TIP3      2153            0.0000000000
     23808      2289  TIP3      H1             28.5558153887       58.2280303117       72.3868654262  TIP3      2153            0.0000000000
     23809      2289  TIP3      H2             29.6332565103       58.5130704745       71.3529899383  TIP3      2153            0.0000000000
     23810      2290  TIP3      OH2            24.4794166349       59.1621860091       69.0406852685  TIP3      2154            0.0000000000
     23811      2290  TIP3      H1             24.5279279931       60.1143815378       68.8913319935  TIP3      2154            0.0000000000
     23812      2290  TIP3      H2             25.4163816292       58.9084061037       69.0050165273  TIP3      2154            0.0000000000
     23813      2291  TIP3      OH2            34.7635472738       60.2119212326       80.6164004812  TIP3      2155            0.0000000000
     23814      2291  TIP3      H1             33.8853603022       60.6299790139       80.7761002019  TIP3      2155            0.0000000000
     23815      2291  TIP3      H2             34.5455797732       59.7115778897       79.8065164291  TIP3      2155            0.0000000000
     23816      2292  TIP3      OH2            33.5964027791       64.0263722928       74.0081050188  TIP3      2156            0.0000000000
     23817      2292  TIP3      H1             32.9254814997       63.3615364480       74.2514558913  TIP3      2156            0.0000000000
     23818      2292  TIP3      H2             34.2327096001       63.9029752899       74.7531912169  TIP3      2156            0.0000000000
     23819      2293  TIP3      OH2            22.2623656769       57.3294141559       75.6746114267  TIP3      2157            0.0000000000
     23820      2293  TIP3      H1             22.1689894274       57.2280640210       74.7011879091  TIP3      2157            0.0000000000
     23821      2293  TIP3      H2             21.9395815267       56.4410866753       75.9437446292  TIP3      2157            0.0000000000
     23822      2294  TIP3      OH2            21.8423161167       64.2952145544       82.6064174619  TIP3      2158            0.0000000000
     23823      2294  TIP3      H1             21.7921368847       63.4503511599       83.0786113117  TIP3      2158            0.0000000000
     23824      2294  TIP3      H2             21.6153066402       64.8665731708       83.3670219304  TIP3      2158            0.0000000000
     23825      2295  TIP3      OH2            25.5016291162       63.9068917604       80.4513025062  TIP3      2159            0.0000000000
     23826      2295  TIP3      H1             24.7660616050       64.4175227744       80.0809088619  TIP3      2159            0.0000000000
     23827      2295  TIP3      H2             26.1399762455       64.0043884768       79.7028450695  TIP3      2159            0.0000000000
     23828      2296  TIP3      OH2            25.8893524256       61.4022290198       81.2797063182  TIP3      2160            0.0000000000
     23829      2296  TIP3      H1             26.0124634212       60.8170917312       80.5054941389  TIP3      2160            0.0000000000
     23830      2296  TIP3      H2             25.7468238028       62.2740131075       80.8469500721  TIP3      2160            0.0000000000
     23831      2297  TIP3      OH2            26.5152271011       59.6399397497       79.1194577947  TIP3      2161            0.0000000000
     23832      2297  TIP3      H1             26.8845961166       60.0854159378       78.3193974797  TIP3      2161            0.0000000000
     23833      2297  TIP3      H2             25.5641524631       59.7570993021       78.9211000361  TIP3      2161            0.0000000000
     23834      2298  TIP3      OH2            27.5452759492       64.7649617111       78.8575291746  TIP3      2162            0.0000000000
     23835      2298  TIP3      H1             28.4879898425       64.7267435742       78.6076635555  TIP3      2162            0.0000000000
     23836      2298  TIP3      H2             27.3189356143       65.6940028948       78.6712861813  TIP3      2162            0.0000000000
     23837      2299  TIP3      OH2            32.5084664315       62.7968498145       83.8299142932  TIP3      2163            0.0000000000
     23838      2299  TIP3      H1             32.9446906808       62.0854600062       83.3360774571  TIP3      2163            0.0000000000
     23839      2299  TIP3      H2             33.1493542789       62.9894083326       84.5366354881  TIP3      2163            0.0000000000
     23840      2300  TIP3      OH2            32.7859665362       65.7914966543       81.5961058368  TIP3      2164            0.0000000000
     23841      2300  TIP3      H1             33.3044535372       66.6040437730       81.6797105769  TIP3      2164            0.0000000000
     23842      2300  TIP3      H2             33.4761299726       65.1727442672       81.8914020268  TIP3      2164            0.0000000000
     23843      2301  TIP3      OH2            24.4472242882       62.3942786439       83.5855348554  TIP3      2165            0.0000000000
     23844      2301  TIP3      H1             23.5942351865       61.9626939268       83.3716272013  TIP3      2165            0.0000000000
     23845      2301  TIP3      H2             24.9998344167       62.0368239819       82.8635012901  TIP3      2165            0.0000000000
     23846      2302  TIP3      OH2            27.0664655734       56.9901691868       79.2522224695  TIP3      2166            0.0000000000
     23847      2302  TIP3      H1             26.7946502178       57.9293215145       79.1244433457  TIP3      2166            0.0000000000
     23848      2302  TIP3      H2             26.3124702800       56.5292893100       78.8544573764  TIP3      2166            0.0000000000
     23849      2303  TIP3      OH2            27.8379874578       61.4623583750       83.1817401804  TIP3      2167            0.0000000000
     23850      2303  TIP3      H1             27.2906090868       61.2182438877       83.9510291839  TIP3      2167            0.0000000000
     23851      2303  TIP3      H2             27.2349215250       61.2551666794       82.4301344849  TIP3      2167            0.0000000000
     23852      2304  TIP3      OH2            30.1249194916       60.4662598404       82.1210739860  TIP3      2168            0.0000000000
     23853      2304  TIP3      H1             29.1856196315       60.5169334396       82.3792113587  TIP3      2168            0.0000000000
     23854      2304  TIP3      H2             30.4947476779       59.9369417166       82.8634437419  TIP3      2168            0.0000000000
     23855      2305  TIP3      OH2            31.5141994857       58.9769651641       84.0968355924  TIP3      2169            0.0000000000
     23856      2305  TIP3      H1             31.7303285862       58.0169679455       84.1070803114  TIP3      2169            0.0000000000
     23857      2305  TIP3      H2             31.9296777287       59.3313115340       84.9097498458  TIP3      2169            0.0000000000
     23858      2306  TIP3      OH2            22.1569954957       60.7060455506       83.0776714409  TIP3      2170            0.0000000000
     23859      2306  TIP3      H1             22.5678876889       59.8318650940       82.9743464808  TIP3      2170            0.0000000000
     23860      2306  TIP3      H2             21.8044841379       60.6623495794       83.9936215338  TIP3      2170            0.0000000000
     23861      2307  TIP3      OH2            26.4415119934       56.6618819628       81.9357598058  TIP3      2171            0.0000000000
     23862      2307  TIP3      H1             27.2782801216       56.2074368094       82.1331571590  TIP3      2171            0.0000000000
     23863      2307  TIP3      H2             26.4772652545       56.5936789795       80.9600424953  TIP3      2171            0.0000000000
     23864      2308  TIP3      OH2            26.9033641494       57.9230599143       84.8774849039  TIP3      2172            0.0000000000
     23865      2308  TIP3      H1             26.7494284981       57.5230951063       84.0061583098  TIP3      2172            0.0000000000
     23866      2308  TIP3      H2             26.4467487415       58.7802862933       84.7571586871  TIP3      2172            0.0000000000
     23867      2309  TIP3      OH2            37.1754425367       66.1240645632       71.3465799034  TIP3      2173            0.0000000000
     23868      2309  TIP3      H1             36.5634541517       65.3634739673       71.4496215275  TIP3      2173            0.0000000000
     23869      2309  TIP3      H2             37.7392140343       65.9757841878       72.1391657410  TIP3      2173            0.0000000000
     23870      2310  TIP3      OH2            35.5016440182       64.2170159999       72.1573061291  TIP3      2174            0.0000000000
     23871      2310  TIP3      H1             35.5052518745       63.2914977403       71.8563737022  TIP3      2174            0.0000000000
     23872      2310  TIP3      H2             34.9957085425       64.1262832036       73.0010593140  TIP3      2174            0.0000000000
     23873      2311  TIP3      OH2            35.3525220020       65.7344145576       82.8864576597  TIP3      2175            0.0000000000
     23874      2311  TIP3      H1             35.9468295485       64.9620814127       82.8648955341  TIP3      2175            0.0000000000
     23875      2311  TIP3      H2             35.7504690422       66.2862820396       82.1827666887  TIP3      2175            0.0000000000
     23876      2312  TIP3      OH2            37.2772809443       63.7493624578       83.0082426498  TIP3      2176            0.0000000000
     23877      2312  TIP3      H1             36.6832826879       63.4690143749       82.2795513960  TIP3      2176            0.0000000000
     23878      2312  TIP3      H2             37.8821758442       62.9611862931       83.0105365575  TIP3      2176            0.0000000000
     23879      2313  TIP3      OH2            34.3393563855       62.0249944768       70.8743976717  TIP3      2177            0.0000000000
     23880      2313  TIP3      H1             34.5453028157       61.0589383017       70.8375936963  TIP3      2177            0.0000000000
     23881      2313  TIP3      H2             34.9295233841       62.3531323506       70.1651591813  TIP3      2177            0.0000000000
     23882      2314  TIP3      OH2            35.3707254652       63.0205988129       75.7406537808  TIP3      2178            0.0000000000
     23883      2314  TIP3      H1             36.3209077239       62.8688604968       75.8928979826  TIP3      2178            0.0000000000
     23884      2314  TIP3      H2             35.0542278561       62.6667679848       76.5994001134  TIP3      2178            0.0000000000
     23885      2315  TIP3      OH2            35.0234089066       62.6032955371       78.4185074160  TIP3      2179            0.0000000000
     23886      2315  TIP3      H1             34.1690678186       63.0259806996       78.6423781661  TIP3      2179            0.0000000000
     23887      2315  TIP3      H2             35.6176967138       63.3936968548       78.4401700762  TIP3      2179            0.0000000000
     23888      2316  TIP3      OH2            19.9724220970       61.2771960202       81.3636454654  TIP3      2180            0.0000000000
     23889      2316  TIP3      H1             20.6375107681       61.1537657675       82.0758101312  TIP3      2180            0.0000000000
     23890      2316  TIP3      H2             19.4667604137       60.4383303675       81.4792835403  TIP3      2180            0.0000000000
     23891      2317  TIP3      OH2            38.4375868937       57.4601524495       83.9822566151  TIP3      2181            0.0000000000
     23892      2317  TIP3      H1             38.4292335145       56.6343661267       83.4682422928  TIP3      2181            0.0000000000
     23893      2317  TIP3      H2             38.3218826164       58.0882604936       83.2472020575  TIP3      2181            0.0000000000
     23894      2318  TIP3      OH2            34.6333245175       59.3353889685       70.4592492817  TIP3      2182            0.0000000000
     23895      2318  TIP3      H1             35.3415437380       58.8722186603       70.9473503113  TIP3      2182            0.0000000000
     23896      2318  TIP3      H2             34.0822512699       58.6048079105       70.1042184510  TIP3      2182            0.0000000000
     23897      2319  TIP3      OH2            20.7650949515       59.5554379807       75.5488560539  TIP3      2183            0.0000000000
     23898      2319  TIP3      H1             21.2612899089       58.7088862637       75.6206382709  TIP3      2183            0.0000000000
     23899      2319  TIP3      H2             21.4762012278       60.2089078493       75.6247586543  TIP3      2183            0.0000000000
     23900      2320  TIP3      OH2            19.4768956276       62.5304148366       76.7697675897  TIP3      2184            0.0000000000
     23901      2320  TIP3      H1             19.9629082384       62.4966690403       75.9235763507  TIP3      2184            0.0000000000
     23902      2320  TIP3      H2             19.6870090023       63.4186407739       77.0698510660  TIP3      2184            0.0000000000
     23903      2321  TIP3      OH2            37.1472064487       59.4189838549       82.0794536042  TIP3      2185            0.0000000000
     23904      2321  TIP3      H1             36.4663233434       59.5936498207       82.7703626445  TIP3      2185            0.0000000000
     23905      2321  TIP3      H2             36.6019187242       59.0130867747       81.3845559042  TIP3      2185            0.0000000000
     23906      2322  TIP3      OH2            19.5711734181       59.0100574417       70.5924609017  TIP3      2186            0.0000000000
     23907      2322  TIP3      H1             18.6150052699       58.9291443707       70.4800242245  TIP3      2186            0.0000000000
     23908      2322  TIP3      H2             19.7729821295       59.5742249400       69.8239347432  TIP3      2186            0.0000000000
     23909      2323  TIP3      OH2            19.5447912674       57.4145190102       78.6207965325  TIP3      2187            0.0000000000
     23910      2323  TIP3      H1             18.8243128791       57.0289462567       79.1450268628  TIP3      2187            0.0000000000
     23911      2323  TIP3      H2             19.1355814560       58.2147598584       78.2562163145  TIP3      2187            0.0000000000
     23912      2324  TIP3      OH2            35.7661697063       56.9224026262       80.3955721523  TIP3      2188            0.0000000000
     23913      2324  TIP3      H1             36.1656816978       57.5826034356       79.8160847027  TIP3      2188            0.0000000000
     23914      2324  TIP3      H2             35.9621409955       56.0925839662       79.9223584864  TIP3      2188            0.0000000000
     23915      2325  TIP3      OH2            28.7586321328       58.3972665931       74.0619650798  TIP3      2189            0.0000000000
     23916      2325  TIP3      H1             28.2687212183       57.7590186767       74.6323597897  TIP3      2189            0.0000000000
     23917      2325  TIP3      H2             29.7076289063       58.1812627340       74.1961626314  TIP3      2189            0.0000000000
     23918      2326  TIP3      OH2            34.3174506896       56.0961313947       74.0075514460  TIP3      2190            0.0000000000
     23919      2326  TIP3      H1             35.0829417338       56.6215653096       74.3515659372  TIP3      2190            0.0000000000
     23920      2326  TIP3      H2             33.5748606218       56.6119646489       74.3445883072  TIP3      2190            0.0000000000
     23921      2327  TIP3      OH2            36.4612120951       58.0871580422       72.5066000107  TIP3      2191            0.0000000000
     23922      2327  TIP3      H1             36.8684619794       57.2140650479       72.3379661776  TIP3      2191            0.0000000000
     23923      2327  TIP3      H2             36.8396115778       58.3101895619       73.3722510770  TIP3      2191            0.0000000000
     23924      2328  TIP3      OH2            21.6575744259       56.9348533108       72.9616085285  TIP3      2192            0.0000000000
     23925      2328  TIP3      H1             20.7649721930       56.8609343134       72.5773921728  TIP3      2192            0.0000000000
     23926      2328  TIP3      H2             22.0679898012       56.0854813318       72.6985857343  TIP3      2192            0.0000000000
     23927      2329  TIP3      OH2            20.6572695837       56.9003938022       68.2469350991  TIP3      2193            0.0000000000
     23928      2329  TIP3      H1             20.1462343962       57.1361939866       67.4460372128  TIP3      2193            0.0000000000
     23929      2329  TIP3      H2             19.9926063428       57.0363222118       68.9345803512  TIP3      2193            0.0000000000
     23930      2330  TIP3      OH2            25.6490934968       56.8551254183       72.1536295408  TIP3      2194            0.0000000000
     23931      2330  TIP3      H1             26.0982685939       57.3840750505       71.4915302397  TIP3      2194            0.0000000000
     23932      2330  TIP3      H2             26.3173585132       56.8240137365       72.8528973542  TIP3      2194            0.0000000000
     23933      2331  TIP3      OH2            31.3744333804       57.7090851951       73.7291920206  TIP3      2195            0.0000000000
     23934      2331  TIP3      H1             32.0823076112       57.5305535654       73.0948013668  TIP3      2195            0.0000000000
     23935      2331  TIP3      H2             31.1669082574       56.7904068888       74.0413428734  TIP3      2195            0.0000000000
     23936      2332  TIP3      OH2            32.8110211461       57.7497327459       69.3963708517  TIP3      2196            0.0000000000
     23937      2332  TIP3      H1             31.9998164353       58.0810523393       69.8332973087  TIP3      2196            0.0000000000
     23938      2332  TIP3      H2             32.6309707792       56.7841452602       69.4161062516  TIP3      2196            0.0000000000
     23939      2333  TIP3      OH2            27.4926293790       58.7570301205       69.2752406899  TIP3      2197            0.0000000000
     23940      2333  TIP3      H1             28.0403110406       58.4296812202       70.0219298427  TIP3      2197            0.0000000000
     23941      2333  TIP3      H2             27.6767679145       59.7079004570       69.3989514818  TIP3      2197            0.0000000000
     23942      2334  TIP3      OH2            21.7510514565       57.7217550768       81.8068262626  TIP3      2198            0.0000000000
     23943      2334  TIP3      H1             21.2229974244       56.9027222374       81.8802845161  TIP3      2198            0.0000000000
     23944      2334  TIP3      H2             22.4240236072       57.5767623451       82.5052429077  TIP3      2198            0.0000000000
     23945      2335  TIP3      OH2            23.6672156989       57.1759590044       83.7131773045  TIP3      2199            0.0000000000
     23946      2335  TIP3      H1             24.4352065214       56.8757661055       83.1864941377  TIP3      2199            0.0000000000
     23947      2335  TIP3      H2             23.3739477507       56.3235855101       84.0831298108  TIP3      2199            0.0000000000
     23948      2336  TIP3      OH2            32.1608067534       56.3828218778       83.8433331971  TIP3      2200            0.0000000000
     23949      2336  TIP3      H1             32.3062645146       55.8978381719       84.6759666519  TIP3      2200            0.0000000000
     23950      2336  TIP3      H2             33.0918516978       56.4339729325       83.5157827750  TIP3      2200            0.0000000000
     23951      2337  TIP3      OH2            49.3328418307       65.3252315916       74.5813647807  TIP3      2201            0.0000000000
     23952      2337  TIP3      H1             49.6476128131       64.3951929013       74.6193497859  TIP3      2201            0.0000000000
     23953      2337  TIP3      H2             48.4040752014       65.2089653048       74.8156883006  TIP3      2201            0.0000000000
     23954      2338  TIP3      OH2            40.8670107225       65.2783497139       76.7430433146  TIP3      2202            0.0000000000
     23955      2338  TIP3      H1             40.7535086627       64.4379651958       77.2169943392  TIP3      2202            0.0000000000
     23956      2338  TIP3      H2             41.3234736310       65.7821284102       77.4319253472  TIP3      2202            0.0000000000
     23957      2339  TIP3      OH2            39.1376271469       63.2517562871       71.0692466473  TIP3      2203            0.0000000000
     23958      2339  TIP3      H1             38.6061279597       63.8206148052       71.6513775762  TIP3      2203            0.0000000000
     23959      2339  TIP3      H2             38.4778122870       62.8825196246       70.4567546014  TIP3      2203            0.0000000000
     23960      2340  TIP3      OH2            38.8942101744       65.1406074597       73.2618682599  TIP3      2204            0.0000000000
     23961      2340  TIP3      H1             39.0306823483       64.4908924202       73.9873023191  TIP3      2204            0.0000000000
     23962      2340  TIP3      H2             39.7487560472       65.6026021334       73.2958261098  TIP3      2204            0.0000000000
     23963      2341  TIP3      OH2            55.2520104828       59.6133394318       76.4720505891  TIP3      2205            0.0000000000
     23964      2341  TIP3      H1             55.6391052300       59.9557784983       77.3050086263  TIP3      2205            0.0000000000
     23965      2341  TIP3      H2             56.0230362379       59.6346480945       75.8807978121  TIP3      2205            0.0000000000
     23966      2342  TIP3      OH2            50.3339272005       62.6149399835       76.7583433879  TIP3      2206            0.0000000000
     23967      2342  TIP3      H1             50.2271888009       61.6925613554       77.0672374376  TIP3      2206            0.0000000000
     23968      2342  TIP3      H2             50.4563202758       62.4694777551       75.8028468390  TIP3      2206            0.0000000000
     23969      2343  TIP3      OH2            43.7027646333       60.0966468791       73.2836559515  TIP3      2207            0.0000000000
     23970      2343  TIP3      H1             43.7860743123       60.9956111398       72.9060727227  TIP3      2207            0.0000000000
     23971      2343  TIP3      H2             43.0130911641       59.7403507913       72.6867165441  TIP3      2207            0.0000000000
     23972      2344  TIP3      OH2            50.7354296849       60.6517514941       72.6602903002  TIP3      2208            0.0000000000
     23973      2344  TIP3      H1             51.2417265793       60.1847336065       73.3534893184  TIP3      2208            0.0000000000
     23974      2344  TIP3      H2             51.4469077074       61.2108666411       72.2867209102  TIP3      2208            0.0000000000
     23975      2345  TIP3      OH2            39.9241228096       63.0656532973       74.6792749052  TIP3      2209            0.0000000000
     23976      2345  TIP3      H1             40.5716866580       62.5197171902       75.1753926498  TIP3      2209            0.0000000000
     23977      2345  TIP3      H2             40.0687705242       62.7021066982       73.7833419567  TIP3      2209            0.0000000000
     23978      2346  TIP3      OH2            44.7792190016       64.3928563362       73.8188848876  TIP3      2210            0.0000000000
     23979      2346  TIP3      H1             45.6286742562       63.9225511524       73.9478620769  TIP3      2210            0.0000000000
     23980      2346  TIP3      H2             44.3208591777       63.7691361840       73.2139941611  TIP3      2210            0.0000000000
     23981      2347  TIP3      OH2            55.6784071281       61.0406716650       78.9842693657  TIP3      2211            0.0000000000
     23982      2347  TIP3      H1             55.2007419593       61.8160387901       78.6162192136  TIP3      2211            0.0000000000
     23983      2347  TIP3      H2             56.0086280023       61.4088271571       79.8181522821  TIP3      2211            0.0000000000
     23984      2348  TIP3      OH2            42.3484540311       59.5401370132       77.6767410976  TIP3      2212            0.0000000000
     23985      2348  TIP3      H1             41.7261193995       59.9362900721       77.0341801183  TIP3      2212            0.0000000000
     23986      2348  TIP3      H2             41.8224888575       59.6670144430       78.4979537592  TIP3      2212            0.0000000000
     23987      2349  TIP3      OH2            53.0371157065       60.6603335300       74.4514881630  TIP3      2213            0.0000000000
     23988      2349  TIP3      H1             53.5722812072       59.8567568726       74.5264345446  TIP3      2213            0.0000000000
     23989      2349  TIP3      H2             53.5707491048       61.2957968369       74.9758739874  TIP3      2213            0.0000000000
     23990      2350  TIP3      OH2            41.8430994046       61.3221291999       75.5834692513  TIP3      2214            0.0000000000
     23991      2350  TIP3      H1             42.5226291844       61.7519839981       76.1455297296  TIP3      2214            0.0000000000
     23992      2350  TIP3      H2             42.3842111303       61.0043073855       74.8410072899  TIP3      2214            0.0000000000
     23993      2351  TIP3      OH2            52.7713523646       58.9329419664       77.5668232721  TIP3      2215            0.0000000000
     23994      2351  TIP3      H1             52.0249765487       59.3464118401       77.0733036324  TIP3      2215            0.0000000000
     23995      2351  TIP3      H2             53.5643181202       59.3536011631       77.1769634743  TIP3      2215            0.0000000000
     23996      2352  TIP3      OH2            45.7090649893       56.6770612449       74.9823847677  TIP3      2216            0.0000000000
     23997      2352  TIP3      H1             45.3893778479       55.8106666643       75.3010100240  TIP3      2216            0.0000000000
     23998      2352  TIP3      H2             44.9676041993       57.2580415396       75.2913706257  TIP3      2216            0.0000000000
     23999      2353  TIP3      OH2            48.7491807818       65.4980280246       69.5344789594  TIP3      2217            0.0000000000
     24000      2353  TIP3      H1             48.4001542808       66.1967914816       70.1358000686  TIP3      2217            0.0000000000
     24001      2353  TIP3      H2             48.9196094189       65.9950860605       68.7229798275  TIP3      2217            0.0000000000
     24002      2354  TIP3      OH2            55.1177012815       65.1713514555       77.8702239251  TIP3      2218            0.0000000000
     24003      2354  TIP3      H1             55.7500495496       65.9136612844       78.0064704161  TIP3      2218            0.0000000000
     24004      2354  TIP3      H2             55.1518769938       65.1357953666       76.8994516735  TIP3      2218            0.0000000000
     24005      2355  TIP3      OH2            52.0177009948       65.2968213874       71.4081662808  TIP3      2219            0.0000000000
     24006      2355  TIP3      H1             51.8145298643       65.6182711494       72.3110789552  TIP3      2219            0.0000000000
     24007      2355  TIP3      H2             52.9166120211       64.9443614679       71.5056324343  TIP3      2219            0.0000000000
     24008      2356  TIP3      OH2            51.5414818208       64.3880365201       79.6142967471  TIP3      2220            0.0000000000
     24009      2356  TIP3      H1             51.3547261785       64.5847622381       80.5561073302  TIP3      2220            0.0000000000
     24010      2356  TIP3      H2             50.6532271925       64.4321405425       79.2044743952  TIP3      2220            0.0000000000
     24011      2357  TIP3      OH2            44.0888429274       64.9303189262       76.3879231466  TIP3      2221            0.0000000000
     24012      2357  TIP3      H1             44.1287576019       64.6715867101       75.4397659437  TIP3      2221            0.0000000000
     24013      2357  TIP3      H2             44.1248830606       65.8978582428       76.2802594488  TIP3      2221            0.0000000000
     24014      2358  TIP3      OH2            42.2467998709       65.5056288306       79.9804020092  TIP3      2222            0.0000000000
     24015      2358  TIP3      H1             42.6490877232       66.1783567821       80.5621038235  TIP3      2222            0.0000000000
     24016      2358  TIP3      H2             41.4015412894       65.3368358159       80.4227258404  TIP3      2222            0.0000000000
     24017      2359  TIP3      OH2            41.3080625739       65.0462623179       70.8923449494  TIP3      2223            0.0000000000
     24018      2359  TIP3      H1             41.7522813745       64.8610987036       70.0526214252  TIP3      2223            0.0000000000
     24019      2359  TIP3      H2             40.6429979022       64.3260819225       70.9870099643  TIP3      2223            0.0000000000
     24020      2360  TIP3      OH2            53.9433542342       62.5284349117       81.5511913502  TIP3      2224            0.0000000000
     24021      2360  TIP3      H1             53.1809060394       62.8370132894       81.0318437941  TIP3      2224            0.0000000000
     24022      2360  TIP3      H2             53.9191503547       61.5728426954       81.3204386942  TIP3      2224            0.0000000000
     24023      2361  TIP3      OH2            43.6856729107       58.0192555808       75.9959365923  TIP3      2225            0.0000000000
     24024      2361  TIP3      H1             42.8516827541       57.7271669314       75.5504061101  TIP3      2225            0.0000000000
     24025      2361  TIP3      H2             43.3538907393       58.7992634643       76.4775118933  TIP3      2225            0.0000000000
     24026      2362  TIP3      OH2            48.6350522258       57.0896491866       79.3791815570  TIP3      2226            0.0000000000
     24027      2362  TIP3      H1             49.1870294240       56.6969925960       80.1037858695  TIP3      2226            0.0000000000
     24028      2362  TIP3      H2             47.7335892949       57.0238518769       79.7446875891  TIP3      2226            0.0000000000
     24029      2363  TIP3      OH2            50.9151285633       61.3571559814       80.7304118072  TIP3      2227            0.0000000000
     24030      2363  TIP3      H1             50.1523514750       61.0765233844       81.2877819332  TIP3      2227            0.0000000000
     24031      2363  TIP3      H2             50.6229769286       62.2122198178       80.3839466674  TIP3      2227            0.0000000000
     24032      2364  TIP3      OH2            51.8780742068       65.2991122094       67.0445847728  TIP3      2228            0.0000000000
     24033      2364  TIP3      H1             51.3025550932       64.6332348700       66.6047442780  TIP3      2228            0.0000000000
     24034      2364  TIP3      H2             52.7515109545       64.9340787482       66.8308498199  TIP3      2228            0.0000000000
     24035      2365  TIP3      OH2            43.5964980791       62.3242450725       77.5225096885  TIP3      2229            0.0000000000
     24036      2365  TIP3      H1             42.8464699902       62.5248022490       78.1197623150  TIP3      2229            0.0000000000
     24037      2365  TIP3      H2             43.7242126119       63.2009417174       77.1004017601  TIP3      2229            0.0000000000
     24038      2366  TIP3      OH2            43.6600243348       62.5402247120       72.0576786798  TIP3      2230            0.0000000000
     24039      2366  TIP3      H1             42.6628966832       62.5339277282       72.0488713727  TIP3      2230            0.0000000000
     24040      2366  TIP3      H2             43.8429936470       62.3018634851       71.1349560260  TIP3      2230            0.0000000000
     24041      2367  TIP3      OH2            48.7687350841       63.4030019133       71.2485276439  TIP3      2231            0.0000000000
     24042      2367  TIP3      H1             48.6606821914       64.2568885803       70.7620966510  TIP3      2231            0.0000000000
     24043      2367  TIP3      H2             49.4512042134       62.9918779139       70.6729567041  TIP3      2231            0.0000000000
     24044      2368  TIP3      OH2            48.2719348085       63.4247781719       82.3226291010  TIP3      2232            0.0000000000
     24045      2368  TIP3      H1             47.8956625555       62.7199872035       82.8885395263  TIP3      2232            0.0000000000
     24046      2368  TIP3      H2             49.0404484117       63.6955657452       82.8539824837  TIP3      2232            0.0000000000
     24047      2369  TIP3      OH2            49.7884076546       62.7241046133       74.0002479318  TIP3      2233            0.0000000000
     24048      2369  TIP3      H1             49.4192135054       63.0656729534       73.1579180466  TIP3      2233            0.0000000000
     24049      2369  TIP3      H2             50.0099602297       61.8190217067       73.6792460138  TIP3      2233            0.0000000000
     24050      2370  TIP3      OH2            41.1764236205       62.7200157197       78.7549099312  TIP3      2234            0.0000000000
     24051      2370  TIP3      H1             41.2581699585       63.1275349431       79.6277228178  TIP3      2234            0.0000000000
     24052      2370  TIP3      H2             40.9452284667       61.8013990274       78.9981123180  TIP3      2234            0.0000000000
     24053      2371  TIP3      OH2            38.3142317331       60.4361272977       73.2206964851  TIP3      2235            0.0000000000
     24054      2371  TIP3      H1             38.8002773858       59.7138175837       73.6232728476  TIP3      2235            0.0000000000
     24055      2371  TIP3      H2             38.2410986053       60.1508778370       72.2864634958  TIP3      2235            0.0000000000
     24056      2372  TIP3      OH2            39.6349621737       61.4564548308       68.4889654623  TIP3      2236            0.0000000000
     24057      2372  TIP3      H1             39.3261158210       62.3347301814       68.1737208637  TIP3      2236            0.0000000000
     24058      2372  TIP3      H2             39.1033764472       60.8269892612       67.9901242481  TIP3      2236            0.0000000000
     24059      2373  TIP3      OH2            49.0701534682       64.2923410460       78.4091246845  TIP3      2237            0.0000000000
     24060      2373  TIP3      H1             49.5899489474       63.8049760118       77.7230306644  TIP3      2237            0.0000000000
     24061      2373  TIP3      H2             48.7065386507       63.5450564739       78.9506360918  TIP3      2237            0.0000000000
     24062      2374  TIP3      OH2            46.5609626593       59.9889459582       73.0191645337  TIP3      2238            0.0000000000
     24063      2374  TIP3      H1             45.6519705498       60.0885299869       73.3755006492  TIP3      2238            0.0000000000
     24064      2374  TIP3      H2             47.0171161131       59.5050020120       73.7447826325  TIP3      2238            0.0000000000
     24065      2375  TIP3      OH2            41.1113622851       61.8647809271       72.1770466735  TIP3      2239            0.0000000000
     24066      2375  TIP3      H1             40.3687037476       62.2028540733       71.6373206277  TIP3      2239            0.0000000000
     24067      2375  TIP3      H2             41.2752786419       60.9944721773       71.7365560411  TIP3      2239            0.0000000000
     24068      2376  TIP3      OH2            44.2584070847       61.8876370306       69.1922948237  TIP3      2240            0.0000000000
     24069      2376  TIP3      H1             45.1357852219       62.2568596225       69.3510997551  TIP3      2240            0.0000000000
     24070      2376  TIP3      H2             43.8489578506       62.5461294245       68.5955315610  TIP3      2240            0.0000000000
     24071      2377  TIP3      OH2            50.5552535169       59.5298003525       76.2356508792  TIP3      2241            0.0000000000
     24072      2377  TIP3      H1             50.0174284945       59.2580502961       77.0181770227  TIP3      2241            0.0000000000
     24073      2377  TIP3      H2             50.3607783035       58.8513849786       75.5663950126  TIP3      2241            0.0000000000
     24074      2378  TIP3      OH2            43.3188201390       63.2184580712       66.7649987930  TIP3      2242            0.0000000000
     24075      2378  TIP3      H1             42.9669389125       63.8343704471       66.0888700162  TIP3      2242            0.0000000000
     24076      2378  TIP3      H2             44.2768458400       63.3404280031       66.5981053964  TIP3      2242            0.0000000000
     24077      2379  TIP3      OH2            47.0718516243       62.8195748821       74.5347604446  TIP3      2243            0.0000000000
     24078      2379  TIP3      H1             48.0100374988       62.6085353794       74.3283392938  TIP3      2243            0.0000000000
     24079      2379  TIP3      H2             46.8363360412       62.1309707123       75.1890065109  TIP3      2243            0.0000000000
     24080      2380  TIP3      OH2            41.8728151887       59.4599131749       71.3031381351  TIP3      2244            0.0000000000
     24081      2380  TIP3      H1             41.5899665733       58.5564760684       71.5755575789  TIP3      2244            0.0000000000
     24082      2380  TIP3      H2             42.3817459857       59.2761843103       70.4856502321  TIP3      2244            0.0000000000
     24083      2381  TIP3      OH2            46.2055902137       61.3951202521       77.0953571114  TIP3      2245            0.0000000000
     24084      2381  TIP3      H1             45.4483575604       61.9839796036       77.2823634268  TIP3      2245            0.0000000000
     24085      2381  TIP3      H2             46.7877401978       61.6116407307       77.8357466617  TIP3      2245            0.0000000000
     24086      2382  TIP3      OH2            50.5515284845       62.4938026079       69.3075997581  TIP3      2246            0.0000000000
     24087      2382  TIP3      H1             51.5004297815       62.3601869028       69.4447235927  TIP3      2246            0.0000000000
     24088      2382  TIP3      H2             50.5718780764       63.2965420590       68.7529438688  TIP3      2246            0.0000000000
     24089      2383  TIP3      OH2            38.4596943069       65.1999678238       80.3457384818  TIP3      2247            0.0000000000
     24090      2383  TIP3      H1             38.6524558782       64.6477674283       81.1243027990  TIP3      2247            0.0000000000
     24091      2383  TIP3      H2             37.8011983924       64.6659566702       79.8571290164  TIP3      2247            0.0000000000
     24092      2384  TIP3      OH2            45.7543633245       64.6070465332       82.1433115311  TIP3      2248            0.0000000000
     24093      2384  TIP3      H1             45.2553372788       64.2621254081       81.3750153882  TIP3      2248            0.0000000000
     24094      2384  TIP3      H2             46.6268404182       64.1653186006       82.0546258969  TIP3      2248            0.0000000000
     24095      2385  TIP3      OH2            55.6752972951       62.3348565554       69.6824238650  TIP3      2249            0.0000000000
     24096      2385  TIP3      H1             56.3412960045       61.7161651682       69.3412091112  TIP3      2249            0.0000000000
     24097      2385  TIP3      H2             55.6456318638       62.9640569499       68.9220747933  TIP3      2249            0.0000000000
     24098      2386  TIP3      OH2            40.7642086858       60.1498934771       79.8556052153  TIP3      2250            0.0000000000
     24099      2386  TIP3      H1             39.9854043734       60.5192821782       80.3150501026  TIP3      2250            0.0000000000
     24100      2386  TIP3      H2             40.9531103741       59.3944616277       80.4408749138  TIP3      2250            0.0000000000
     24101      2387  TIP3      OH2            49.6286659498       59.4352018222       78.7541290579  TIP3      2251            0.0000000000
     24102      2387  TIP3      H1             50.2906342602       59.6217752593       79.4308989095  TIP3      2251            0.0000000000
     24103      2387  TIP3      H2             49.2087932333       58.6099953781       79.0940919623  TIP3      2251            0.0000000000
     24104      2388  TIP3      OH2            49.8643728666       59.6499872848       70.2925942533  TIP3      2252            0.0000000000
     24105      2388  TIP3      H1             50.3270608444       60.3576507456       69.8119790316  TIP3      2252            0.0000000000
     24106      2388  TIP3      H2             50.2037221574       59.8300881850       71.2005160919  TIP3      2252            0.0000000000
     24107      2389  TIP3      OH2            46.9905073640       61.4617897614       70.6333741348  TIP3      2253            0.0000000000
     24108      2389  TIP3      H1             47.5772883192       62.2211583439       70.8504735588  TIP3      2253            0.0000000000
     24109      2389  TIP3      H2             46.8656164818       61.0606688774       71.5217593095  TIP3      2253            0.0000000000
     24110      2390  TIP3      OH2            48.2078854770       62.2249690840       79.8116125894  TIP3      2254            0.0000000000
     24111      2390  TIP3      H1             48.0474042121       62.5264836163       80.7346101931  TIP3      2254            0.0000000000
     24112      2390  TIP3      H2             48.5536330115       61.3212415336       79.9178937738  TIP3      2254            0.0000000000
     24113      2391  TIP3      OH2            47.7188042832       58.1873324606       71.3007168894  TIP3      2255            0.0000000000
     24114      2391  TIP3      H1             47.2759507466       58.8626583498       71.8663201691  TIP3      2255            0.0000000000
     24115      2391  TIP3      H2             48.5610533880       58.6626908831       71.1060937148  TIP3      2255            0.0000000000
     24116      2392  TIP3      OH2            43.6394524470       59.2472216778       69.0460387432  TIP3      2256            0.0000000000
     24117      2392  TIP3      H1             43.6137486952       60.2241451616       69.0047935511  TIP3      2256            0.0000000000
     24118      2392  TIP3      H2             44.5655419275       59.0798762060       68.8135018843  TIP3      2256            0.0000000000
     24119      2393  TIP3      OH2            53.7245767816       59.9991734629       80.6852541269  TIP3      2257            0.0000000000
     24120      2393  TIP3      H1             52.7516880684       60.0346791931       80.6924793223  TIP3      2257            0.0000000000
     24121      2393  TIP3      H2             53.9639926258       60.3140315682       79.7906700026  TIP3      2257            0.0000000000
     24122      2394  TIP3      OH2            52.9204593633       64.1646714569       74.5634214192  TIP3      2258            0.0000000000
     24123      2394  TIP3      H1             52.0344342976       63.8427678164       74.7592053996  TIP3      2258            0.0000000000
     24124      2394  TIP3      H2             53.5007847543       63.5613474708       75.0838834448  TIP3      2258            0.0000000000
     24125      2395  TIP3      OH2            41.3183606354       57.1299832418       75.1819139545  TIP3      2259            0.0000000000
     24126      2395  TIP3      H1             41.1882886538       57.0744601432       74.2117142617  TIP3      2259            0.0000000000
     24127      2395  TIP3      H2             40.9017427445       56.2855561248       75.4708208089  TIP3      2259            0.0000000000
     24128      2396  TIP3      OH2            40.4721504755       64.4457221953       82.9117300457  TIP3      2260            0.0000000000
     24129      2396  TIP3      H1             40.5691673450       63.5097544181       83.1487861022  TIP3      2260            0.0000000000
     24130      2396  TIP3      H2             40.3903878520       64.8360571288       83.8116955072  TIP3      2260            0.0000000000
     24131      2397  TIP3      OH2            43.8536301317       65.8001277552       68.2326568455  TIP3      2261            0.0000000000
     24132      2397  TIP3      H1             44.5602323661       65.9035283459       68.8869189453  TIP3      2261            0.0000000000
     24133      2397  TIP3      H2             44.3519390244       65.5572796733       67.4300370623  TIP3      2261            0.0000000000
     24134      2398  TIP3      OH2            44.2674168029       63.7115019658       80.0949334994  TIP3      2262            0.0000000000
     24135      2398  TIP3      H1             43.5132519489       64.3207187514       79.9675796789  TIP3      2262            0.0000000000
     24136      2398  TIP3      H2             44.7801672557       63.9015295003       79.2716746186  TIP3      2262            0.0000000000
     24137      2399  TIP3      OH2            45.9302249756       64.1573763252       66.2349738440  TIP3      2263            0.0000000000
     24138      2399  TIP3      H1             45.9346075272       64.0282477158       65.2529929204  TIP3      2263            0.0000000000
     24139      2399  TIP3      H2             46.8196435710       64.5504283886       66.3404483067  TIP3      2263            0.0000000000
     24140      2400  TIP3      OH2            44.8941816037       61.2959337452       81.0957500277  TIP3      2264            0.0000000000
     24141      2400  TIP3      H1             44.9636480743       60.7045265309       80.3111545515  TIP3      2264            0.0000000000
     24142      2400  TIP3      H2             44.7096040423       62.1546667931       80.6596285363  TIP3      2264            0.0000000000
     24143      2401  TIP3      OH2            45.1791858067       59.5909037180       78.8981617564  TIP3      2265            0.0000000000
     24144      2401  TIP3      H1             45.5911805801       59.9600954644       78.0848853408  TIP3      2265            0.0000000000
     24145      2401  TIP3      H2             44.2449774114       59.5988167419       78.6193737597  TIP3      2265            0.0000000000
     24146      2402  TIP3      OH2            46.2537320517       64.3892217256       78.4989764492  TIP3      2266            0.0000000000
     24147      2402  TIP3      H1             47.2212219552       64.3886799076       78.3868737002  TIP3      2266            0.0000000000
     24148      2402  TIP3      H2             46.0510602255       65.3152204514       78.2707628737  TIP3      2266            0.0000000000
     24149      2403  TIP3      OH2            51.1711293447       62.6018037315       83.7687344407  TIP3      2267            0.0000000000
     24150      2403  TIP3      H1             51.5523791168       61.7162238415       83.8237519622  TIP3      2267            0.0000000000
     24151      2403  TIP3      H2             51.9662893759       63.1457520164       83.8238617231  TIP3      2267            0.0000000000
     24152      2404  TIP3      OH2            51.6939641295       65.4312117094       82.1193094248  TIP3      2268            0.0000000000
     24153      2404  TIP3      H1             51.8318851565       66.2476451680       81.6189827517  TIP3      2268            0.0000000000
     24154      2404  TIP3      H2             52.5623160236       65.3904653082       82.5621116233  TIP3      2268            0.0000000000
     24155      2405  TIP3      OH2            42.9736486003       62.1271824000       83.0540009849  TIP3      2269            0.0000000000
     24156      2405  TIP3      H1             42.2139312795       61.5516590153       82.7885614455  TIP3      2269            0.0000000000
     24157      2405  TIP3      H2             43.6479563907       61.8636666789       82.3949060468  TIP3      2269            0.0000000000
     24158      2406  TIP3      OH2            45.7621600307       56.8986635045       79.2060527627  TIP3      2270            0.0000000000
     24159      2406  TIP3      H1             45.5926911432       57.8589656025       79.1035036571  TIP3      2270            0.0000000000
     24160      2406  TIP3      H2             44.9703523551       56.5278262091       78.7962953515  TIP3      2270            0.0000000000
     24161      2407  TIP3      OH2            46.7315611577       61.3219677315       83.0955364605  TIP3      2271            0.0000000000
     24162      2407  TIP3      H1             46.0745487135       60.9951156748       83.7378601222  TIP3      2271            0.0000000000
     24163      2407  TIP3      H2             46.2093346148       61.2850145900       82.2638573568  TIP3      2271            0.0000000000
     24164      2408  TIP3      OH2            48.8501267927       60.0773241872       81.9619506228  TIP3      2272            0.0000000000
     24165      2408  TIP3      H1             48.0191294322       60.3551128914       82.3922784214  TIP3      2272            0.0000000000
     24166      2408  TIP3      H2             49.3065955056       59.6074042142       82.6922061520  TIP3      2272            0.0000000000
     24167      2409  TIP3      OH2            50.5355114993       59.0141723957       84.0882278198  TIP3      2273            0.0000000000
     24168      2409  TIP3      H1             50.9433425917       58.1171449396       84.0443066733  TIP3      2273            0.0000000000
     24169      2409  TIP3      H2             50.5494535711       59.2225750498       85.0346427538  TIP3      2273            0.0000000000
     24170      2410  TIP3      OH2            40.9302827355       60.4439573817       82.9345263372  TIP3      2274            0.0000000000
     24171      2410  TIP3      H1             40.8318256166       59.5646669794       82.5216910577  TIP3      2274            0.0000000000
     24172      2410  TIP3      H2             40.9561876806       60.1928212957       83.8848199121  TIP3      2274            0.0000000000
     24173      2411  TIP3      OH2            45.3855224911       56.7311792707       82.0221811266  TIP3      2275            0.0000000000
     24174      2411  TIP3      H1             46.1965902649       56.2196406631       82.1658835924  TIP3      2275            0.0000000000
     24175      2411  TIP3      H2             45.3416354206       56.6381413122       81.0496795908  TIP3      2275            0.0000000000
     24176      2412  TIP3      OH2            45.6286371938       57.9360204259       84.7030613757  TIP3      2276            0.0000000000
     24177      2412  TIP3      H1             45.5845275176       57.4968527309       83.8282929512  TIP3      2276            0.0000000000
     24178      2412  TIP3      H2             45.2155948666       58.7977513335       84.4861889563  TIP3      2276            0.0000000000
     24179      2413  TIP3      OH2            56.2523435977       65.6300080695       72.2230764326  TIP3      2277            0.0000000000
     24180      2413  TIP3      H1             55.6061157750       64.8904332660       72.1395604984  TIP3      2277            0.0000000000
     24181      2413  TIP3      H2             56.3059879424       65.6973559444       73.1936925243  TIP3      2277            0.0000000000
     24182      2414  TIP3      OH2            56.0484010542       64.4142392846       67.9609249587  TIP3      2278            0.0000000000
     24183      2414  TIP3      H1             56.4643678231       64.8692733847       67.1993256671  TIP3      2278            0.0000000000
     24184      2414  TIP3      H2             55.2833563413       65.0144670585       68.1059281045  TIP3      2278            0.0000000000
     24185      2415  TIP3      OH2            53.9192347239       62.4786528758       66.4652062302  TIP3      2279            0.0000000000
     24186      2415  TIP3      H1             53.1095109960       62.5465448634       65.9366569945  TIP3      2279            0.0000000000
     24187      2415  TIP3      H2             53.8800897121       61.5716785922       66.7902628220  TIP3      2279            0.0000000000
     24188      2416  TIP3      OH2            54.2522930908       63.7697293350       72.2658542447  TIP3      2280            0.0000000000
     24189      2416  TIP3      H1             53.8180845618       62.9384494046       71.9881916865  TIP3      2280            0.0000000000
     24190      2416  TIP3      H2             53.8451454110       63.8870386829       73.1530074166  TIP3      2280            0.0000000000
     24191      2417  TIP3      OH2            54.2811720639       65.6165037645       82.9878805887  TIP3      2281            0.0000000000
     24192      2417  TIP3      H1             54.7877205811       64.8158906104       82.7680668011  TIP3      2281            0.0000000000
     24193      2417  TIP3      H2             54.5289736840       66.1851481228       82.2196419214  TIP3      2281            0.0000000000
     24194      2418  TIP3      OH2            56.0602028280       63.1360517852       83.2490331688  TIP3      2282            0.0000000000
     24195      2418  TIP3      H1             55.4168878779       62.9005188757       82.5401763377  TIP3      2282            0.0000000000
     24196      2418  TIP3      H2             56.8801420377       62.8199610129       82.8244913158  TIP3      2282            0.0000000000
     24197      2419  TIP3      OH2            52.9615205222       61.6034202657       71.2952884326  TIP3      2283            0.0000000000
     24198      2419  TIP3      H1             53.3418517895       60.6949475331       71.4050631469  TIP3      2283            0.0000000000
     24199      2419  TIP3      H2             53.5647470410       61.9261323188       70.5960672690  TIP3      2283            0.0000000000
     24200      2420  TIP3      OH2            54.3673070893       62.4599637178       76.1448609213  TIP3      2284            0.0000000000
     24201      2420  TIP3      H1             55.3445897794       62.5059553662       76.3038793802  TIP3      2284            0.0000000000
     24202      2420  TIP3      H2             54.0063700954       62.6636192990       77.0323720551  TIP3      2284            0.0000000000
     24203      2421  TIP3      OH2            53.7740471143       63.0616998584       78.6514375233  TIP3      2285            0.0000000000
     24204      2421  TIP3      H1             52.8557272685       63.4028558370       78.7232505955  TIP3      2285            0.0000000000
     24205      2421  TIP3      H2             54.2489487477       63.9264133946       78.5348275743  TIP3      2285            0.0000000000
     24206      2422  TIP3      OH2            38.5233723366       61.4781168746       83.1196091350  TIP3      2286            0.0000000000
     24207      2422  TIP3      H1             39.4235979603       61.1213991715       83.2849095158  TIP3      2286            0.0000000000
     24208      2422  TIP3      H2             38.1299460721       60.7787404695       82.5576665137  TIP3      2286            0.0000000000
     24209      2423  TIP3      OH2            56.2995613616       57.3653049371       83.8284741170  TIP3      2287            0.0000000000
     24210      2423  TIP3      H1             56.8025207478       56.6492173137       83.3845350515  TIP3      2287            0.0000000000
     24211      2423  TIP3      H2             56.3538876877       58.0990169207       83.1803330790  TIP3      2287            0.0000000000
     24212      2424  TIP3      OH2            53.6591137715       58.9484919495       71.4089457368  TIP3      2288            0.0000000000
     24213      2424  TIP3      H1             54.3628101347       58.5027858519       71.9383184633  TIP3      2288            0.0000000000
     24214      2424  TIP3      H2             53.4867718353       58.3299268980       70.6631239446  TIP3      2288            0.0000000000
     24215      2425  TIP3      OH2            39.8255414704       59.4005761795       76.1407004140  TIP3      2289            0.0000000000
     24216      2425  TIP3      H1             40.2624822097       58.5716302827       75.8526410871  TIP3      2289            0.0000000000
     24217      2425  TIP3      H2             40.2552243980       60.0844236857       75.6023670726  TIP3      2289            0.0000000000
     24218      2426  TIP3      OH2            37.9841523295       63.1381364623       76.4868174081  TIP3      2290            0.0000000000
     24219      2426  TIP3      H1             38.0462984471       62.1734453179       76.3989821471  TIP3      2290            0.0000000000
     24220      2426  TIP3      H2             38.7269978072       63.4194539787       75.9061538262  TIP3      2290            0.0000000000
     24221      2427  TIP3      OH2            55.9880676271       59.4905288832       82.3336561585  TIP3      2291            0.0000000000
     24222      2427  TIP3      H1             55.2966918388       59.8710072808       82.9145423450  TIP3      2291            0.0000000000
     24223      2427  TIP3      H2             55.3944047226       59.1041970649       81.6582486660  TIP3      2291            0.0000000000
     24224      2428  TIP3      OH2            38.3705105717       59.1580027866       70.5058081637  TIP3      2292            0.0000000000
     24225      2428  TIP3      H1             37.8900435805       58.3684226690       70.7986593388  TIP3      2292            0.0000000000
     24226      2428  TIP3      H2             38.1936422236       59.1719434183       69.5471058314  TIP3      2292            0.0000000000
     24227      2429  TIP3      OH2            38.2045239620       57.5162502425       78.4584901056  TIP3      2293            0.0000000000
     24228      2429  TIP3      H1             37.7998003380       56.6445846308       78.5871742520  TIP3      2293            0.0000000000
     24229      2429  TIP3      H2             37.9859588170       57.6947346791       77.5245850129  TIP3      2293            0.0000000000
     24230      2430  TIP3      OH2            54.6391103183       56.6621587918       80.5408506961  TIP3      2294            0.0000000000
     24231      2430  TIP3      H1             54.1118829626       57.2507280451       79.9692092475  TIP3      2294            0.0000000000
     24232      2430  TIP3      H2             54.8750755497       55.9206183681       79.9421573107  TIP3      2294            0.0000000000
     24233      2431  TIP3      OH2            47.8181594684       58.2573056100       74.6809952896  TIP3      2295            0.0000000000
     24234      2431  TIP3      H1             47.1698127617       57.5206891795       74.6883317663  TIP3      2295            0.0000000000
     24235      2431  TIP3      H2             48.6167228045       57.8876109507       74.2522898792  TIP3      2295            0.0000000000
     24236      2432  TIP3      OH2            53.6192223534       56.7189589509       74.7168272875  TIP3      2296            0.0000000000
     24237      2432  TIP3      H1             54.4331951136       57.1397206770       74.3454819931  TIP3      2296            0.0000000000
     24238      2432  TIP3      H2             52.9445346591       57.3497575727       74.4195118438  TIP3      2296            0.0000000000
     24239      2433  TIP3      OH2            55.4609843975       57.9609925190       73.1572678493  TIP3      2297            0.0000000000
     24240      2433  TIP3      H1             56.0347571558       57.4043711662       72.5757062925  TIP3      2297            0.0000000000
     24241      2433  TIP3      H2             56.0489793018       58.7378589148       73.3095699026  TIP3      2297            0.0000000000
     24242      2434  TIP3      OH2            41.1806763511       57.0719712147       72.2871213815  TIP3      2298            0.0000000000
     24243      2434  TIP3      H1             40.3096837494       57.0176039781       71.8623926198  TIP3      2298            0.0000000000
     24244      2434  TIP3      H2             41.5280811791       56.1539933401       72.1683633119  TIP3      2298            0.0000000000
     24245      2435  TIP3      OH2            44.9268851446       56.6753391586       72.0918742817  TIP3      2299            0.0000000000
     24246      2435  TIP3      H1             45.3980757028       57.3048212757       71.5366200707  TIP3      2299            0.0000000000
     24247      2435  TIP3      H2             45.3599433113       56.7796496470       72.9524705872  TIP3      2299            0.0000000000
     24248      2436  TIP3      OH2            50.2963740346       57.4871466500       73.6434443122  TIP3      2300            0.0000000000
     24249      2436  TIP3      H1             50.3705246166       57.3390744134       72.6927604749  TIP3      2300            0.0000000000
     24250      2436  TIP3      H2             50.2486004891       56.5519398758       73.9726610990  TIP3      2300            0.0000000000
     24251      2437  TIP3      OH2            53.1029177346       57.0453275510       69.5255754932  TIP3      2301            0.0000000000
     24252      2437  TIP3      H1             52.8862072140       57.5046631034       68.6965630422  TIP3      2301            0.0000000000
     24253      2437  TIP3      H2             52.2772540559       56.5361491439       69.7088506711  TIP3      2301            0.0000000000
     24254      2438  TIP3      OH2            46.4129482738       58.8440085045       68.9818423367  TIP3      2302            0.0000000000
     24255      2438  TIP3      H1             46.9302335320       58.4863904073       69.7344739065  TIP3      2302            0.0000000000
     24256      2438  TIP3      H2             46.4048163630       59.7849567101       69.2418936387  TIP3      2302            0.0000000000
     24257      2439  TIP3      OH2            40.4726617329       57.8546516408       81.9022845147  TIP3      2303            0.0000000000
     24258      2439  TIP3      H1             39.9406938171       57.0315269753       81.9321227097  TIP3      2303            0.0000000000
     24259      2439  TIP3      H2             41.2187093186       57.6150980089       82.5002610323  TIP3      2303            0.0000000000
     24260      2440  TIP3      OH2            42.4661554056       57.1064298234       83.6250250541  TIP3      2304            0.0000000000
     24261      2440  TIP3      H1             43.3078967971       56.7995270073       83.2402210486  TIP3      2304            0.0000000000
     24262      2440  TIP3      H2             42.2170855495       56.3086309567       84.1233473022  TIP3      2304            0.0000000000
     24263      2441  TIP3      OH2            51.0887272371       56.3803934676       83.9344653432  TIP3      2305            0.0000000000
     24264      2441  TIP3      H1             51.1537390220       55.8002169737       84.7162079846  TIP3      2305            0.0000000000
     24265      2441  TIP3      H2             52.0127390975       56.2944798426       83.5807392420  TIP3      2305            0.0000000000
     24266      2442  TIP3      OH2            59.5873713540       65.2525401786       77.2621614075  TIP3      2306            0.0000000000
     24267      2442  TIP3      H1             59.6913070085       64.4206243974       77.7495307448  TIP3      2306            0.0000000000
     24268      2442  TIP3      H2             59.8974055858       65.8943867325       77.9279219696  TIP3      2306            0.0000000000
     24269      2443  TIP3      OH2            57.7414545518       63.3436245101       71.2636168373  TIP3      2307            0.0000000000
     24270      2443  TIP3      H1             57.3964024787       64.2247300697       71.4879079466  TIP3      2307            0.0000000000
     24271      2443  TIP3      H2             57.0446555883       63.0465148018       70.6428686087  TIP3      2307            0.0000000000
     24272      2444  TIP3      OH2            58.4817855230       65.3621238498       74.0368681476  TIP3      2308            0.0000000000
     24273      2444  TIP3      H1             58.7611734824       64.4247339856       74.0901073910  TIP3      2308            0.0000000000
     24274      2444  TIP3      H2             58.6271930341       65.5974569061       73.1154269430  TIP3      2308            0.0000000000
     24275      2445  TIP3      OH2            62.1144171215       60.1190710219       73.6271327093  TIP3      2309            0.0000000000
     24276      2445  TIP3      H1             62.3401621350       60.9538250151       73.1643843303  TIP3      2309            0.0000000000
     24277      2445  TIP3      H2             61.7642673782       59.6127739844       72.8612067709  TIP3      2309            0.0000000000
     24278      2446  TIP3      OH2            59.1149243137       62.7464672272       74.4195023157  TIP3      2310            0.0000000000
     24279      2446  TIP3      H1             59.7177603055       62.2339972463       74.9936539618  TIP3      2310            0.0000000000
     24280      2446  TIP3      H2             59.2949279149       62.3348920806       73.5534364666  TIP3      2310            0.0000000000
     24281      2447  TIP3      OH2            63.9034822359       63.4729063964       74.6088425888  TIP3      2311            0.0000000000
     24282      2447  TIP3      H1             64.8218088153       63.2488086079       74.3659071980  TIP3      2311            0.0000000000
     24283      2447  TIP3      H2             63.5134858208       63.6034368128       73.7184912970  TIP3      2311            0.0000000000
     24284      2448  TIP3      OH2            61.0324548578       59.4541416749       77.9783870374  TIP3      2312            0.0000000000
     24285      2448  TIP3      H1             61.0024609756       60.2036648272       77.3517333609  TIP3      2312            0.0000000000
     24286      2448  TIP3      H2             60.1441676189       59.5417187140       78.3907118008  TIP3      2312            0.0000000000
     24287      2449  TIP3      OH2            60.9759824006       61.3160528830       75.8909640152  TIP3      2313            0.0000000000
     24288      2449  TIP3      H1             61.7000457156       61.9329668697       76.1123058657  TIP3      2313            0.0000000000
     24289      2449  TIP3      H2             61.3701962852       60.8682475655       75.1006849246  TIP3      2313            0.0000000000
     24290      2450  TIP3      OH2            64.4924913102       56.7727239803       75.5597025386  TIP3      2314            0.0000000000
     24291      2450  TIP3      H1             64.1759303469       55.9744996465       75.9909452354  TIP3      2314            0.0000000000
     24292      2450  TIP3      H2             63.7057804031       57.3549593399       75.6565219448  TIP3      2314            0.0000000000
     24293      2451  TIP3      OH2            62.8250143884       64.9458318418       76.5459669726  TIP3      2315            0.0000000000
     24294      2451  TIP3      H1             63.1922384928       64.4271268240       75.7901030936  TIP3      2315            0.0000000000
     24295      2451  TIP3      H2             62.8430995432       65.8548785656       76.1858667834  TIP3      2315            0.0000000000
     24296      2452  TIP3      OH2            60.7472883698       65.8262618685       79.8410828088  TIP3      2316            0.0000000000
     24297      2452  TIP3      H1             61.5098009277       66.2742423561       80.2515639725  TIP3      2316            0.0000000000
     24298      2452  TIP3      H2             60.2523260805       65.5882404850       80.6352272878  TIP3      2316            0.0000000000
     24299      2453  TIP3      OH2            61.5831059298       65.5031610053       69.6995450592  TIP3      2317            0.0000000000
     24300      2453  TIP3      H1             60.8489962632       66.1144114979       69.4588748671  TIP3      2317            0.0000000000
     24301      2453  TIP3      H2             61.0841352598       64.6779205908       69.6985283317  TIP3      2317            0.0000000000
     24302      2454  TIP3      OH2            62.2243381193       57.9422810077       76.2198063315  TIP3      2318            0.0000000000
     24303      2454  TIP3      H1             61.3555402810       57.9349575465       75.7627556994  TIP3      2318            0.0000000000
     24304      2454  TIP3      H2             61.9824915728       58.5151681812       76.9755080265  TIP3      2318            0.0000000000
     24305      2455  TIP3      OH2            62.2562882320       62.9299530187       78.0068274582  TIP3      2319            0.0000000000
     24306      2455  TIP3      H1             61.2894575653       62.8915707298       78.1827054375  TIP3      2319            0.0000000000
     24307      2455  TIP3      H2             62.3241745648       63.6821765824       77.3661189697  TIP3      2319            0.0000000000
     24308      2456  TIP3      OH2            62.4462098086       62.5722025323       72.4074903055  TIP3      2320            0.0000000000
     24309      2456  TIP3      H1             61.4785584661       62.4546607560       72.2633789732  TIP3      2320            0.0000000000
     24310      2456  TIP3      H2             62.7988614454       62.3707877438       71.5337442135  TIP3      2320            0.0000000000
     24311      2457  TIP3      OH2            59.7478113264       62.6082903072       78.8459874529  TIP3      2321            0.0000000000
     24312      2457  TIP3      H1             59.9185757617       62.6685494432       79.7966330339  TIP3      2321            0.0000000000
     24313      2457  TIP3      H2             59.3745071597       61.7079975278       78.7915887854  TIP3      2321            0.0000000000
     24314      2458  TIP3      OH2            57.1037413999       60.1225579651       73.5904282362  TIP3      2322            0.0000000000
     24315      2458  TIP3      H1             57.7425305708       59.9871263465       74.3169365760  TIP3      2322            0.0000000000
     24316      2458  TIP3      H2             57.1880540889       61.0661972274       73.3860129836  TIP3      2322            0.0000000000
     24317      2459  TIP3      OH2            58.1649072607       60.9399092085       68.7058830791  TIP3      2323            0.0000000000
     24318      2459  TIP3      H1             58.2699504887       60.2428991811       68.0259423446  TIP3      2323            0.0000000000
     24319      2459  TIP3      H2             58.5798532784       61.6854758496       68.2462844103  TIP3      2323            0.0000000000
     24320      2460  TIP3      OH2            64.8742034193       60.0921906928       73.4136347510  TIP3      2324            0.0000000000
     24321      2460  TIP3      H1             63.9954517953       60.2859529487       73.7883738080  TIP3      2324            0.0000000000
     24322      2460  TIP3      H2             65.4260666494       60.7819019116       73.8422056407  TIP3      2324            0.0000000000
     24323      2461  TIP3      OH2            59.9774850530       61.6158095200       72.0414256764  TIP3      2325            0.0000000000
     24324      2461  TIP3      H1             59.2479634599       61.9561919068       71.4830185884  TIP3      2325            0.0000000000
     24325      2461  TIP3      H2             60.0971853562       60.6993829218       71.7023947413  TIP3      2325            0.0000000000
     24326      2462  TIP3      OH2            63.8090405132       61.5266836284       68.9465412236  TIP3      2326            0.0000000000
     24327      2462  TIP3      H1             64.6481765097       61.4777899380       69.4573586807  TIP3      2326            0.0000000000
     24328      2462  TIP3      H2             63.5294435018       62.4107655748       69.1810177407  TIP3      2326            0.0000000000
     24329      2463  TIP3      OH2             0.1155312239       62.2646132541       74.1432772728  TIP3      2327            0.0000000000
     24330      2463  TIP3      H1              1.0320821095       62.2948087229       73.8193311258  TIP3      2327            0.0000000000
     24331      2463  TIP3      H2              0.2180856591       62.6142069926       75.0505826141  TIP3      2327            0.0000000000
     24332      2464  TIP3      OH2            61.0326367046       59.1552878259       71.2760730336  TIP3      2328            0.0000000000
     24333      2464  TIP3      H1             60.6251093015       58.3398599462       71.6538602026  TIP3      2328            0.0000000000
     24334      2464  TIP3      H2             61.4387915752       58.8415754820       70.4312121157  TIP3      2328            0.0000000000
     24335      2465  TIP3      OH2            64.4622545328       61.6195967581       77.5398935603  TIP3      2329            0.0000000000
     24336      2465  TIP3      H1             63.6892278613       62.2144129915       77.6054979747  TIP3      2329            0.0000000000
     24337      2465  TIP3      H2             65.1384697692       62.1783548174       77.1156467173  TIP3      2329            0.0000000000
     24338      2466  TIP3      OH2            57.4924540905       65.2816446534       80.7959659277  TIP3      2330            0.0000000000
     24339      2466  TIP3      H1             57.8903971636       64.6165167357       81.3981619944  TIP3      2330            0.0000000000
     24340      2466  TIP3      H2             57.9619005328       65.0970377241       79.9672800310  TIP3      2330            0.0000000000
     24341      2467  TIP3      OH2            64.8591712219       63.9446437526       82.2320940889  TIP3      2331            0.0000000000
     24342      2467  TIP3      H1             64.0296704688       63.8471267194       81.7151988459  TIP3      2331            0.0000000000
     24343      2467  TIP3      H2             65.5193790336       63.7930163679       81.5460630960  TIP3      2331            0.0000000000
     24344      2468  TIP3      OH2            59.6112328567       64.1405195053       67.3405953776  TIP3      2332            0.0000000000
     24345      2468  TIP3      H1             58.8937195081       64.7796284866       67.4683108961  TIP3      2332            0.0000000000
     24346      2468  TIP3      H2             59.5014985563       63.9699152340       66.3878301664  TIP3      2332            0.0000000000
     24347      2469  TIP3      OH2            59.1148161933       60.0534384427       79.7810566464  TIP3      2333            0.0000000000
     24348      2469  TIP3      H1             58.5806615349       60.5916381675       80.3985624076  TIP3      2333            0.0000000000
     24349      2469  TIP3      H2             59.4351700586       59.3988115789       80.4252764549  TIP3      2333            0.0000000000
     24350      2470  TIP3      OH2            65.8288947230       61.7199771233       70.6891780326  TIP3      2334            0.0000000000
     24351      2470  TIP3      H1             66.3136436874       60.9458395482       70.3356735570  TIP3      2334            0.0000000000
     24352      2470  TIP3      H2             65.7657201273       61.4376855203       71.6095194581  TIP3      2334            0.0000000000
     24353      2471  TIP3      OH2            62.4382851849       59.0652874146       68.8424106617  TIP3      2335            0.0000000000
     24354      2471  TIP3      H1             62.5661379724       60.0302822049       68.8896933338  TIP3      2335            0.0000000000
     24355      2471  TIP3      H2             63.2696048315       58.8261265786       68.4112288801  TIP3      2335            0.0000000000
     24356      2472  TIP3      OH2            59.7346446731       57.6587215997       75.3259580851  TIP3      2336            0.0000000000
     24357      2472  TIP3      H1             59.7628464820       57.3909182787       74.3786549202  TIP3      2336            0.0000000000
     24358      2472  TIP3      H2             59.6529581919       56.7530587402       75.7331730880  TIP3      2336            0.0000000000
     24359      2473  TIP3      OH2            59.0816204888       64.2642657438       82.9175270768  TIP3      2337            0.0000000000
     24360      2473  TIP3      H1             59.3377668877       63.4926701139       83.4679687271  TIP3      2337            0.0000000000
     24361      2473  TIP3      H2             58.7948149661       64.8668154112       83.6319440036  TIP3      2337            0.0000000000
     24362      2474  TIP3      OH2            62.6829183910       63.7984926450       80.5869247449  TIP3      2338            0.0000000000
     24363      2474  TIP3      H1             62.1103770393       64.2991643017       79.9748098677  TIP3      2338            0.0000000000
     24364      2474  TIP3      H2             63.3549636683       63.5517561880       79.9318613207  TIP3      2338            0.0000000000
     24365      2475  TIP3      OH2            63.7262075368       61.1993286070       81.2234429551  TIP3      2339            0.0000000000
     24366      2475  TIP3      H1             63.6993117136       60.4306054687       80.6136653874  TIP3      2339            0.0000000000
     24367      2475  TIP3      H2             63.2365102984       61.8679092801       80.7149816714  TIP3      2339            0.0000000000
     24368      2476  TIP3      OH2            63.5314067641       59.3840210831       79.0936322383  TIP3      2340            0.0000000000
     24369      2476  TIP3      H1             63.8552283578       60.0688688064       78.4623382238  TIP3      2340            0.0000000000
     24370      2476  TIP3      H2             62.5896848116       59.2817716010       78.8307777618  TIP3      2340            0.0000000000
     24371      2477  TIP3      OH2            65.3039532499       64.9352112645       79.0454674223  TIP3      2341            0.0000000000
     24372      2477  TIP3      H1             65.6616754781       64.3036824749       78.4111556715  TIP3      2341            0.0000000000
     24373      2477  TIP3      H2             65.7147183256       65.7722008258       78.7196375460  TIP3      2341            0.0000000000
     24374      2478  TIP3      OH2            62.0130779216       62.4673904096       83.6061234207  TIP3      2342            0.0000000000
     24375      2478  TIP3      H1             61.2212744990       61.8956191145       83.4902326669  TIP3      2342            0.0000000000
     24376      2478  TIP3      H2             62.5429448080       62.1862638025       82.8344546020  TIP3      2342            0.0000000000
     24377      2479  TIP3      OH2            64.2067171436       56.7363187288       79.1911471943  TIP3      2343            0.0000000000
     24378      2479  TIP3      H1             64.0239134613       57.6998195325       79.1545840358  TIP3      2343            0.0000000000
     24379      2479  TIP3      H2             63.3603992995       56.3817323213       78.8552511712  TIP3      2343            0.0000000000
     24380      2480  TIP3      OH2            65.7311151000       60.7903304845       83.3449589149  TIP3      2344            0.0000000000
     24381      2480  TIP3      H1             65.1590863083       60.8061349032       84.1461400830  TIP3      2344            0.0000000000
     24382      2480  TIP3      H2             65.0650273895       60.9162923644       82.6388805525  TIP3      2344            0.0000000000
     24383      2481  TIP3      OH2            59.8577111323       60.6084352944       83.2680946499  TIP3      2345            0.0000000000
     24384      2481  TIP3      H1             59.6854910768       59.7578312154       82.8119276532  TIP3      2345            0.0000000000
     24385      2481  TIP3      H2             59.8454812099       60.3027908523       84.1996518559  TIP3      2345            0.0000000000
     24386      2482  TIP3      OH2            64.7597227670       57.3476385101       82.1088769197  TIP3      2346            0.0000000000
     24387      2482  TIP3      H1             65.6281709798       56.9275741167       82.1366958750  TIP3      2346            0.0000000000
     24388      2482  TIP3      H2             64.4831344296       57.1607301140       81.1905632125  TIP3      2346            0.0000000000
     24389      2483  TIP3      OH2            64.5492729515       58.1057493392       84.8660143844  TIP3      2347            0.0000000000
     24390      2483  TIP3      H1             64.6483099531       57.7018010591       83.9816972602  TIP3      2347            0.0000000000
     24391      2483  TIP3      H2             64.4293207821       59.0317778156       84.5886740861  TIP3      2347            0.0000000000
     24392      2484  TIP3      OH2            57.7614088953       61.4834531217       81.7964140308  TIP3      2348            0.0000000000
     24393      2484  TIP3      H1             58.4518064803       61.2891289835       82.4741101777  TIP3      2348            0.0000000000
     24394      2484  TIP3      H2             57.1592623583       60.7138305142       81.9376360027  TIP3      2348            0.0000000000
     24395      2485  TIP3      OH2            58.5517503896       59.8535823836       76.0759867830  TIP3      2349            0.0000000000
     24396      2485  TIP3      H1             58.8864587972       58.9389085136       75.8707904942  TIP3      2349            0.0000000000
     24397      2485  TIP3      H2             59.3592305115       60.3965967786       76.0201402822  TIP3      2349            0.0000000000
     24398      2486  TIP3      OH2            57.0199517390       62.9687523818       76.1075362933  TIP3      2350            0.0000000000
     24399      2486  TIP3      H1             57.7147596803       62.7406233122       75.4586590467  TIP3      2350            0.0000000000
     24400      2486  TIP3      H2             57.4526093206       63.7251644118       76.5258704602  TIP3      2350            0.0000000000
     24401      2487  TIP3      OH2            56.9165899208       58.9265684625       70.2166914234  TIP3      2351            0.0000000000
     24402      2487  TIP3      H1             56.0248522237       59.1219392968       69.9028835158  TIP3      2351            0.0000000000
     24403      2487  TIP3      H2             57.3945597513       59.6670519798       69.7949806610  TIP3      2351            0.0000000000
     24404      2488  TIP3      OH2            57.2255926757       57.6472353418       78.8837467693  TIP3      2352            0.0000000000
     24405      2488  TIP3      H1             56.4715364476       57.2038277227       79.3062765523  TIP3      2352            0.0000000000
     24406      2488  TIP3      H2             56.9413945918       58.5682698074       78.7979534865  TIP3      2352            0.0000000000
     24407      2489  TIP3      OH2            59.7283631183       57.0655813951       72.5896237312  TIP3      2353            0.0000000000
     24408      2489  TIP3      H1             58.8847714468       57.0452765234       72.0970532204  TIP3      2353            0.0000000000
     24409      2489  TIP3      H2             60.0298262462       56.1398280576       72.4319784743  TIP3      2353            0.0000000000
     24410      2490  TIP3      OH2            58.5880842810       57.0366887341       68.6643408462  TIP3      2354            0.0000000000
     24411      2490  TIP3      H1             58.8160487633       57.7231250085       67.9895259709  TIP3      2354            0.0000000000
     24412      2490  TIP3      H2             57.9390225717       57.5161353230       69.2250575084  TIP3      2354            0.0000000000
     24413      2491  TIP3      OH2            64.2612483022       56.8599269134       72.6901133462  TIP3      2355            0.0000000000
     24414      2491  TIP3      H1             64.2634771280       57.7614408809       72.3385860213  TIP3      2355            0.0000000000
     24415      2491  TIP3      H2             64.5237326270       57.0164534853       73.6214011135  TIP3      2355            0.0000000000
     24416      2492  TIP3      OH2            59.4841211992       58.6903076789       66.8193046043  TIP3      2356            0.0000000000
     24417      2492  TIP3      H1             60.2360859440       58.1761508764       66.4774261468  TIP3      2356            0.0000000000
     24418      2492  TIP3      H2             59.3657673504       59.3674414344       66.1212969591  TIP3      2356            0.0000000000
     24419      2493  TIP3      OH2            59.2406289744       58.0521020034       82.1432411350  TIP3      2357            0.0000000000
     24420      2493  TIP3      H1             58.5696025147       57.3453476038       82.2346866465  TIP3      2357            0.0000000000
     24421      2493  TIP3      H2             59.9618487609       57.6936381584       82.7096892239  TIP3      2357            0.0000000000
     24422      2494  TIP3      OH2            61.2028344378       57.0196742829       83.8542054985  TIP3      2358            0.0000000000
     24423      2494  TIP3      H1             62.0741578049       56.8053974097       83.4716795390  TIP3      2358            0.0000000000
     24424      2494  TIP3      H2             60.9895056355       56.1607881269       84.2798947379  TIP3      2358            0.0000000000
     24425      2495  TIP3      OH2            11.0192544351        7.7769055179       84.9010424210  TIP3      2359            0.0000000000
     24426      2495  TIP3      H1             11.3295993421        7.9884895563       85.8003636145  TIP3      2359            0.0000000000
     24427      2495  TIP3      H2             11.7279576471        7.1513379154       84.6362065265  TIP3      2359            0.0000000000
     24428      2496  TIP3      OH2            13.0278064109        8.3218005714       86.9387318246  TIP3      2360            0.0000000000
     24429      2496  TIP3      H1             13.3124086852        8.4882358863       87.8611059001  TIP3      2360            0.0000000000
     24430      2496  TIP3      H2             13.8174623742        8.6316664312       86.4406800914  TIP3      2360            0.0000000000
     24431      2497  TIP3      OH2            16.8164594049        0.1224899797       87.1875265396  TIP3      2361            0.0000000000
     24432      2497  TIP3      H1             16.1519570454        0.2450346081       87.8905123421  TIP3      2361            0.0000000000
     24433      2497  TIP3      H2             17.2037854355        1.0245099807       87.1601728057  TIP3      2361            0.0000000000
     24434      2498  TIP3      OH2            18.0539188537       14.7542888688       85.1501469002  TIP3      2362            0.0000000000
     24435      2498  TIP3      H1             18.2354974410       15.6878710149       85.3678367216  TIP3      2362            0.0000000000
     24436      2498  TIP3      H2             18.5505457248       14.3309956887       85.8752712527  TIP3      2362            0.0000000000
     24437      2499  TIP3      OH2            13.8212974468       17.0522259140       85.8796475092  TIP3      2363            0.0000000000
     24438      2499  TIP3      H1             14.1017936398       16.3037439203       85.3043714765  TIP3      2363            0.0000000000
     24439      2499  TIP3      H2             14.3262299334       16.8740129867       86.6903424926  TIP3      2363            0.0000000000
     24440      2500  TIP3      OH2            15.2117691748        9.5232932868       85.7069007693  TIP3      2364            0.0000000000
     24441      2500  TIP3      H1             14.7962011821        9.5112405913       84.8218439611  TIP3      2364            0.0000000000
     24442      2500  TIP3      H2             16.1506189192        9.5131914940       85.4141880086  TIP3      2364            0.0000000000
     24443      2501  TIP3      OH2            10.3897130056        3.0315410617       85.8344522762  TIP3      2365            0.0000000000
     24444      2501  TIP3      H1              9.4584200098        3.3020716402       85.6832116207  TIP3      2365            0.0000000000
     24445      2501  TIP3      H2             10.3450390599        2.0778483390       85.6458175063  TIP3      2365            0.0000000000
     24446      2502  TIP3      OH2             7.6716669710        3.8327302056       85.0950625063  TIP3      2366            0.0000000000
     24447      2502  TIP3      H1              7.3225351604        4.0556482202       85.9781829771  TIP3      2366            0.0000000000
     24448      2502  TIP3      H2              6.8448994404        4.0235741745       84.5916454503  TIP3      2366            0.0000000000
     24449      2503  TIP3      OH2             1.0560317310        4.4528106045       87.3763704274  TIP3      2367            0.0000000000
     24450      2503  TIP3      H1              1.4654288267        5.1695816201       86.8457529780  TIP3      2367            0.0000000000
     24451      2503  TIP3      H2              0.1210664679        4.6840752279       87.4179689273  TIP3      2367            0.0000000000
     24452      2504  TIP3      OH2             5.8958410599        7.0361506343       86.3710159556  TIP3      2368            0.0000000000
     24453      2504  TIP3      H1              5.2493845105        6.3136780580       86.2547076537  TIP3      2368            0.0000000000
     24454      2504  TIP3      H2              6.2690064312        7.1118584353       85.4634004757  TIP3      2368            0.0000000000
     24455      2505  TIP3      OH2            13.3553336087        3.6614160628       85.9389802101  TIP3      2369            0.0000000000
     24456      2505  TIP3      H1             12.3855364600        3.6131016215       86.0777179295  TIP3      2369            0.0000000000
     24457      2505  TIP3      H2             13.6103814727        4.2067090269       86.6948801611  TIP3      2369            0.0000000000
     24458      2506  TIP3      OH2             9.9926773093       12.3196280607       85.8578782347  TIP3      2370            0.0000000000
     24459      2506  TIP3      H1              9.9550795601       13.2196524490       86.2492019542  TIP3      2370            0.0000000000
     24460      2506  TIP3      H2             10.0588469762       11.7793028110       86.6544753425  TIP3      2370            0.0000000000
     24461      2507  TIP3      OH2             2.4113033178        9.4898062013       85.2568695177  TIP3      2371            0.0000000000
     24462      2507  TIP3      H1              2.8688702147        9.5878562399       86.1273684668  TIP3      2371            0.0000000000
     24463      2507  TIP3      H2              1.8290299130       10.2665997681       85.3479761721  TIP3      2371            0.0000000000
     24464      2508  TIP3      OH2            14.4853283216       12.9709612434       85.7777353606  TIP3      2372            0.0000000000
     24465      2508  TIP3      H1             14.2084997608       13.1040174041       86.6980302827  TIP3      2372            0.0000000000
     24466      2508  TIP3      H2             13.8857662808       12.2679957727       85.4719005485  TIP3      2372            0.0000000000
     24467      2509  TIP3      OH2            18.4175624277       17.2237504245       86.2486688688  TIP3      2373            0.0000000000
     24468      2509  TIP3      H1             19.1830356416       17.8132040959       86.2774181349  TIP3      2373            0.0000000000
     24469      2509  TIP3      H2             17.6874407776       17.7924267627       86.5732152083  TIP3      2373            0.0000000000
     24470      2510  TIP3      OH2             8.1543887673       14.3522357391       84.1908690344  TIP3      2374            0.0000000000
     24471      2510  TIP3      H1              7.9145617785       13.5674909297       83.6750381094  TIP3      2374            0.0000000000
     24472      2510  TIP3      H2              8.1378090360       13.9718745632       85.0963607749  TIP3      2374            0.0000000000
     24473      2511  TIP3      OH2             7.1094775971       13.2774808952       86.8384728722  TIP3      2375            0.0000000000
     24474      2511  TIP3      H1              6.6903133754       12.5713417583       87.3798817188  TIP3      2375            0.0000000000
     24475      2511  TIP3      H2              6.7012162533       14.0967222602       87.1896784259  TIP3      2375            0.0000000000
     24476      2512  TIP3      OH2             3.2055024306       10.4502499003       87.6405750506  TIP3      2376            0.0000000000
     24477      2512  TIP3      H1              2.6651455958       11.0249879481       88.2247613120  TIP3      2376            0.0000000000
     24478      2512  TIP3      H2              3.9372360721       11.0639948962       87.4311332288  TIP3      2376            0.0000000000
     24479      2513  TIP3      OH2             9.4987485057       14.9541582374       86.7122938009  TIP3      2377            0.0000000000
     24480      2513  TIP3      H1              8.6233231405       15.3166829914       86.9357820332  TIP3      2377            0.0000000000
     24481      2513  TIP3      H2             10.0582115041       15.6589542881       87.0780580039  TIP3      2377            0.0000000000
     24482      2514  TIP3      OH2             6.8355044884       15.6964271652       87.8553665995  TIP3      2378            0.0000000000
     24483      2514  TIP3      H1              7.0618136899       16.4504525077       87.2604719793  TIP3      2378            0.0000000000
     24484      2514  TIP3      H2              6.3886111885       16.2018152632       88.5528932346  TIP3      2378            0.0000000000
     24485      2515  TIP3      OH2             5.8961886133        2.0844879790       87.0945343787  TIP3      2379            0.0000000000
     24486      2515  TIP3      H1              5.6075280808        2.7548658251       86.4284758678  TIP3      2379            0.0000000000
     24487      2515  TIP3      H2              6.4200948534        2.6397623183       87.7064181575  TIP3      2379            0.0000000000
     24488      2516  TIP3      OH2             4.0195801612       12.7675743148       86.1997747369  TIP3      2380            0.0000000000
     24489      2516  TIP3      H1              4.4528017678       13.4371175002       86.7456579312  TIP3      2380            0.0000000000
     24490      2516  TIP3      H2              4.7797722049       12.4072881850       85.7139178814  TIP3      2380            0.0000000000
     24491      2517  TIP3      OH2             1.7310192221        6.7931269053       85.9486082347  TIP3      2381            0.0000000000
     24492      2517  TIP3      H1              2.0243502306        7.6842892180       85.6557213900  TIP3      2381            0.0000000000
     24493      2517  TIP3      H2              1.1312229867        6.5447309899       85.2325059836  TIP3      2381            0.0000000000
     24494      2518  TIP3      OH2            10.4322931653       16.1112059651       84.2761131345  TIP3      2382            0.0000000000
     24495      2518  TIP3      H1              9.8775788907       15.3197850905       84.4601679644  TIP3      2382            0.0000000000
     24496      2518  TIP3      H2             11.2649352372       15.6896940782       83.9739522243  TIP3      2382            0.0000000000
     24497      2519  TIP3      OH2            14.7427251162       15.3027809420       84.1588907210  TIP3      2383            0.0000000000
     24498      2519  TIP3      H1             14.8434356884       14.5212816239       84.7416854587  TIP3      2383            0.0000000000
     24499      2519  TIP3      H2             15.6162091782       15.3481619112       83.7007624695  TIP3      2383            0.0000000000
     24500      2520  TIP3      OH2             5.8700049019       11.0322660028       84.2073836276  TIP3      2384            0.0000000000
     24501      2520  TIP3      H1              6.2373523750       10.8128861845       85.0857991535  TIP3      2384            0.0000000000
     24502      2520  TIP3      H2              6.6847369529       11.0027536061       83.6610654898  TIP3      2384            0.0000000000
     24503      2521  TIP3      OH2            11.0307051317       12.7595170588       83.4470345376  TIP3      2385            0.0000000000
     24504      2521  TIP3      H1             10.5487110330       12.5757841529       84.2830556855  TIP3      2385            0.0000000000
     24505      2521  TIP3      H2             11.3369071046       11.8346990666       83.3053374521  TIP3      2385            0.0000000000
     24506      2522  TIP3      OH2             6.7796611355        9.6146852066       86.4004050367  TIP3      2386            0.0000000000
     24507      2522  TIP3      H1              6.2857112011        8.8161898135       86.6970707205  TIP3      2386            0.0000000000
     24508      2522  TIP3      H2              7.3295145640        9.1479815834       85.7316570723  TIP3      2386            0.0000000000
     24509      2523  TIP3      OH2             7.5717768975        7.9654715066       84.4695204076  TIP3      2387            0.0000000000
     24510      2523  TIP3      H1              7.4389490992        8.1289559240       83.5092734787  TIP3      2387            0.0000000000
     24511      2523  TIP3      H2              8.4838167118        7.6418557746       84.4719658478  TIP3      2387            0.0000000000
     24512      2524  TIP3      OH2            17.6669488529        9.9358189467       84.5576305419  TIP3      2388            0.0000000000
     24513      2524  TIP3      H1             17.4856839526        9.5669879088       83.6718072009  TIP3      2388            0.0000000000
     24514      2524  TIP3      H2             17.4903546689       10.9043179553       84.3844206031  TIP3      2388            0.0000000000
     24515      2525  TIP3      OH2             7.8994067463       17.7890991038       86.5016537056  TIP3      2389            0.0000000000
     24516      2525  TIP3      H1              8.8616877225       17.9202941852       86.3325422595  TIP3      2389            0.0000000000
     24517      2525  TIP3      H2              7.5975622561       18.6793565031       86.2442054298  TIP3      2389            0.0000000000
     24518      2526  TIP3      OH2             1.2533095208       12.7311758461       85.6511281097  TIP3      2390            0.0000000000
     24519      2526  TIP3      H1              2.2045499274       12.9625526104       85.7285313908  TIP3      2390            0.0000000000
     24520      2526  TIP3      H2              1.2027813923       12.3954966296       84.7410746764  TIP3      2390            0.0000000000
     24521      2527  TIP3      OH2            19.2079552630        8.9432252382       86.5318703478  TIP3      2391            0.0000000000
     24522      2527  TIP3      H1             18.6176905110        9.0407217918       85.7484363399  TIP3      2391            0.0000000000
     24523      2527  TIP3      H2             19.1466826105        9.8513997783       86.8620995945  TIP3      2391            0.0000000000
     24524      2528  TIP3      OH2            16.8672593067        6.3556302373       85.3396880027  TIP3      2392            0.0000000000
     24525      2528  TIP3      H1             17.2578718813        6.7160819661       84.5378408006  TIP3      2392            0.0000000000
     24526      2528  TIP3      H2             16.4536282818        5.5324426831       85.0153933102  TIP3      2392            0.0000000000
     24527      2529  TIP3      OH2            16.1564814088        3.8891287280       84.3781971840  TIP3      2393            0.0000000000
     24528      2529  TIP3      H1             16.7579800434        3.3895519270       84.9708657921  TIP3      2393            0.0000000000
     24529      2529  TIP3      H2             15.3061596947        3.5081489691       84.6444357732  TIP3      2393            0.0000000000
     24530      2530  TIP3      OH2            17.8600851905        2.5335039185       86.0402378868  TIP3      2394            0.0000000000
     24531      2530  TIP3      H1             18.4237181948        1.9492490593       85.4776186378  TIP3      2394            0.0000000000
     24532      2530  TIP3      H2             18.5479312855        3.0827794259       86.4638569060  TIP3      2394            0.0000000000
     24533      2531  TIP3      OH2             1.1265693369        0.6834552800       87.3395246890  TIP3      2395            0.0000000000
     24534      2531  TIP3      H1              1.7900675148        1.0714195256       86.7321474672  TIP3      2395            0.0000000000
     24535      2531  TIP3      H2              0.5538045812        1.4596989033       87.4569989075  TIP3      2395            0.0000000000
     24536      2532  TIP3      OH2             3.0072741660        1.2446937800       85.1719206733  TIP3      2396            0.0000000000
     24537      2532  TIP3      H1              3.8190751628        0.7106378104       85.0843006604  TIP3      2396            0.0000000000
     24538      2532  TIP3      H2              3.4004737275        2.1462865427       85.1740332102  TIP3      2396            0.0000000000
     24539      2533  TIP3      OH2            10.5491955340       18.1195482225       86.1013511606  TIP3      2397            0.0000000000
     24540      2533  TIP3      H1             11.3610687962       18.5412729284       85.7975749337  TIP3      2397            0.0000000000
     24541      2533  TIP3      H2             10.6153788324       17.2608564349       85.6302650494  TIP3      2397            0.0000000000
     24542      2534  TIP3      OH2             3.8828297301       17.3243693724       84.7322660471  TIP3      2398            0.0000000000
     24543      2534  TIP3      H1              3.5729594950       17.1887551784       85.6383373783  TIP3      2398            0.0000000000
     24544      2534  TIP3      H2              4.7183946210       16.7888196395       84.7144511989  TIP3      2398            0.0000000000
     24545      2535  TIP3      OH2            29.7442933107        6.8744460731       86.3251813210  TIP3      2399            0.0000000000
     24546      2535  TIP3      H1             30.4922443227        7.4604741106       86.5733129225  TIP3      2399            0.0000000000
     24547      2535  TIP3      H2             30.1816895671        6.3449392116       85.6394661306  TIP3      2399            0.0000000000
     24548      2536  TIP3      OH2            31.8732845078        8.3563768130       87.0461649455  TIP3      2400            0.0000000000
     24549      2536  TIP3      H1             32.3896364701        8.5426520849       87.8679723532  TIP3      2400            0.0000000000
     24550      2536  TIP3      H2             32.5072200775        8.6692155057       86.3678346713  TIP3      2400            0.0000000000
     24551      2537  TIP3      OH2            35.2210871100        0.7452932391       87.5760431191  TIP3      2401            0.0000000000
     24552      2537  TIP3      H1             34.4492590758        1.3133997353       87.4819045084  TIP3      2401            0.0000000000
     24553      2537  TIP3      H2             35.9288889576        1.3385713530       87.2507932765  TIP3      2401            0.0000000000
     24554      2538  TIP3      OH2            36.9517467014       14.5746799843       84.7989879927  TIP3      2402            0.0000000000
     24555      2538  TIP3      H1             37.0106036971       15.5219833734       85.0308287020  TIP3      2402            0.0000000000
     24556      2538  TIP3      H2             37.4637606083       14.2224020095       85.5471819077  TIP3      2402            0.0000000000
     24557      2539  TIP3      OH2            32.6638098516       17.2932032610       85.9276532966  TIP3      2403            0.0000000000
     24558      2539  TIP3      H1             32.9705159837       16.6199544372       85.2729515140  TIP3      2403            0.0000000000
     24559      2539  TIP3      H2             33.0691948750       16.9224896455       86.7290645732  TIP3      2403            0.0000000000
     24560      2540  TIP3      OH2            33.4509549635       10.1654589176       85.4557799557  TIP3      2404            0.0000000000
     24561      2540  TIP3      H1             33.4092382038       10.0966953141       84.4764476353  TIP3      2404            0.0000000000
     24562      2540  TIP3      H2             34.3764370764       10.4297554317       85.5435829165  TIP3      2404            0.0000000000
     24563      2541  TIP3      OH2            29.0436179002        3.2535881758       85.5005004045  TIP3      2405            0.0000000000
     24564      2541  TIP3      H1             28.6767967862        3.7897798192       86.2140283278  TIP3      2405            0.0000000000
     24565      2541  TIP3      H2             28.2521529719        2.8253589902       85.1306414975  TIP3      2405            0.0000000000
     24566      2542  TIP3      OH2            25.4499330927        4.0890060163       84.9244781839  TIP3      2406            0.0000000000
     24567      2542  TIP3      H1             25.3110187519        4.2797116796       85.8740529770  TIP3      2406            0.0000000000
     24568      2542  TIP3      H2             24.8111377224        4.7138359167       84.5134871555  TIP3      2406            0.0000000000
     24569      2543  TIP3      OH2            19.9177133508        4.0549033379       87.2476555831  TIP3      2407            0.0000000000
     24570      2543  TIP3      H1             20.5928805603        4.3864883487       86.6247293094  TIP3      2407            0.0000000000
     24571      2543  TIP3      H2             19.4453409874        4.8691043836       87.4630504011  TIP3      2407            0.0000000000
     24572      2544  TIP3      OH2            24.0346455785        5.9266476821       86.6532682450  TIP3      2408            0.0000000000
     24573      2544  TIP3      H1             23.1177593618        5.7768384826       86.3336539447  TIP3      2408            0.0000000000
     24574      2544  TIP3      H2             24.2243637844        6.7528031942       86.1894368836  TIP3      2408            0.0000000000
     24575      2545  TIP3      OH2            32.2081581739        3.4277057733       86.0819652135  TIP3      2409            0.0000000000
     24576      2545  TIP3      H1             31.2772215021        3.3821532473       86.3571099592  TIP3      2409            0.0000000000
     24577      2545  TIP3      H2             32.5253755633        4.1114239503       86.6810333230  TIP3      2409            0.0000000000
     24578      2546  TIP3      OH2            29.2116258577       12.7328332839       86.0210916259  TIP3      2410            0.0000000000
     24579      2546  TIP3      H1             29.1013698956       13.6090381452       86.4722340441  TIP3      2410            0.0000000000
     24580      2546  TIP3      H2             29.0860811284       12.1344797072       86.7696210954  TIP3      2410            0.0000000000
     24581      2547  TIP3      OH2            21.9753174598        8.9264968967       85.7113917397  TIP3      2411            0.0000000000
     24582      2547  TIP3      H1             22.2566201580        9.7000679313       86.2607444203  TIP3      2411            0.0000000000
     24583      2547  TIP3      H2             21.0647771861        8.8325820657       86.0737744076  TIP3      2411            0.0000000000
     24584      2548  TIP3      OH2            33.7965908414       13.3067429085       86.1018270635  TIP3      2412            0.0000000000
     24585      2548  TIP3      H1             34.1263445659       13.2944017495       87.0192089351  TIP3      2412            0.0000000000
     24586      2548  TIP3      H2             32.8589313041       13.0952983133       86.2592044660  TIP3      2412            0.0000000000
     24587      2549  TIP3      OH2            37.2819505479       17.1589388958       85.9359743653  TIP3      2413            0.0000000000
     24588      2549  TIP3      H1             38.1052622716       17.6510144327       86.0750797993  TIP3      2413            0.0000000000
     24589      2549  TIP3      H2             36.6619949915       17.7325788473       86.4476236940  TIP3      2413            0.0000000000
     24590      2550  TIP3      OH2            26.9504400376       14.4233530510       84.4965323410  TIP3      2414            0.0000000000
     24591      2550  TIP3      H1             26.9172329374       13.7758537587       83.7858629665  TIP3      2414            0.0000000000
     24592      2550  TIP3      H2             26.5835352069       13.9076591812       85.2466889790  TIP3      2414            0.0000000000
     24593      2551  TIP3      OH2            25.8315171736       13.3571358254       86.9451807822  TIP3      2415            0.0000000000
     24594      2551  TIP3      H1             25.2601639234       12.9610720354       87.6369493847  TIP3      2415            0.0000000000
     24595      2551  TIP3      H2             25.9422677118       14.2786326608       87.2735652784  TIP3      2415            0.0000000000
     24596      2552  TIP3      OH2            22.3566701284       11.1057232696       87.1935626864  TIP3      2416            0.0000000000
     24597      2552  TIP3      H1             21.8425069637       10.6939050917       87.9221951097  TIP3      2416            0.0000000000
     24598      2552  TIP3      H2             23.2227331708       11.2024043386       87.6361496433  TIP3      2416            0.0000000000
     24599      2553  TIP3      OH2            28.5443001369       15.0528547319       87.1236195578  TIP3      2417            0.0000000000
     24600      2553  TIP3      H1             27.6098138805       15.3188319760       87.2059527885  TIP3      2417            0.0000000000
     24601      2553  TIP3      H2             28.9751082475       15.9296264273       87.1102164914  TIP3      2417            0.0000000000
     24602      2554  TIP3      OH2            26.0064500486       15.8563979466       87.7072675011  TIP3      2418            0.0000000000
     24603      2554  TIP3      H1             26.0033704359       16.3926039570       86.8794934679  TIP3      2418            0.0000000000
     24604      2554  TIP3      H2             25.7870452859       16.5844735391       88.3144016967  TIP3      2418            0.0000000000
     24605      2555  TIP3      OH2            23.5270531939        3.1643867954       87.2319529244  TIP3      2419            0.0000000000
     24606      2555  TIP3      H1             23.7497631310        4.1115651135       87.1982534569  TIP3      2419            0.0000000000
     24607      2555  TIP3      H2             24.3621941836        2.8189632174       87.6041798966  TIP3      2419            0.0000000000
     24608      2556  TIP3      OH2            22.9859946609       13.5128555018       85.6167437108  TIP3      2420            0.0000000000
     24609      2556  TIP3      H1             23.4998459255       13.6036840547       86.4355357461  TIP3      2420            0.0000000000
     24610      2556  TIP3      H2             23.3893263244       12.7175457640       85.2253989598  TIP3      2420            0.0000000000
     24611      2557  TIP3      OH2            21.5019058738        6.1432932048       85.4806455709  TIP3      2421            0.0000000000
     24612      2557  TIP3      H1             21.6471364416        7.0822484470       85.6792575602  TIP3      2421            0.0000000000
     24613      2557  TIP3      H2             20.7612095904        6.1851388713       84.8603143475  TIP3      2421            0.0000000000
     24614      2558  TIP3      OH2            29.2040441259       16.2058563816       84.3061571223  TIP3      2422            0.0000000000
     24615      2558  TIP3      H1             28.5934873719       15.4535026054       84.4525864068  TIP3      2422            0.0000000000
     24616      2558  TIP3      H2             29.9777096175       15.7646400976       83.8919715857  TIP3      2422            0.0000000000
     24617      2559  TIP3      OH2            33.7022778743       15.4122874526       84.3040414255  TIP3      2423            0.0000000000
     24618      2559  TIP3      H1             33.9248848378       14.6809952379       84.9188022217  TIP3      2423            0.0000000000
     24619      2559  TIP3      H2             34.5207594620       15.4728815739       83.7671302843  TIP3      2423            0.0000000000
     24620      2560  TIP3      OH2            24.4900170912       11.4154025693       84.2535358178  TIP3      2424            0.0000000000
     24621      2560  TIP3      H1             24.5080072352       10.8741284184       85.0604116772  TIP3      2424            0.0000000000
     24622      2560  TIP3      H2             25.4190663137       11.4133510945       83.9554777963  TIP3      2424            0.0000000000
     24623      2561  TIP3      OH2            30.2439788066       12.9812161769       83.5895325149  TIP3      2425            0.0000000000
     24624      2561  TIP3      H1             29.8025938724       13.0101869597       84.4681694165  TIP3      2425            0.0000000000
     24625      2561  TIP3      H2             30.2571411002       12.0122902408       83.4726483928  TIP3      2425            0.0000000000
     24626      2562  TIP3      OH2            25.9385558018        9.7406797213       86.1041560408  TIP3      2426            0.0000000000
     24627      2562  TIP3      H1             26.5832591498        9.4474400443       86.7625146255  TIP3      2426            0.0000000000
     24628      2562  TIP3      H2             25.7776363187        8.8965515193       85.6332154840  TIP3      2426            0.0000000000
     24629      2563  TIP3      OH2            26.3866829584        7.3903642456       84.7913356673  TIP3      2427            0.0000000000
     24630      2563  TIP3      H1             25.7387054224        7.1538650298       84.0982371314  TIP3      2427            0.0000000000
     24631      2563  TIP3      H2             26.8855084904        6.5585983817       84.8165341060  TIP3      2427            0.0000000000
     24632      2564  TIP3      OH2            36.5636038855       10.0479466433       84.4014038476  TIP3      2428            0.0000000000
     24633      2564  TIP3      H1             36.2502787327        9.6017733735       83.5773565523  TIP3      2428            0.0000000000
     24634      2564  TIP3      H2             36.1617965705       10.9495292103       84.2918771844  TIP3      2428            0.0000000000
     24635      2565  TIP3      OH2            26.7741653881       18.1682265991       86.5318357680  TIP3      2429            0.0000000000
     24636      2565  TIP3      H1             27.7401279356       18.2827014631       86.4158369851  TIP3      2429            0.0000000000
     24637      2565  TIP3      H2             26.4227839607       18.8658721941       85.9444406300  TIP3      2429            0.0000000000
     24638      2566  TIP3      OH2            20.0848457503       12.9595120494       85.9864026916  TIP3      2430            0.0000000000
     24639      2566  TIP3      H1             21.0606841144       13.0235360033       86.0167732576  TIP3      2430            0.0000000000
     24640      2566  TIP3      H2             19.9762318055       12.4273488331       85.1759477049  TIP3      2430            0.0000000000
     24641      2567  TIP3      OH2            37.8289886911        8.9598380463       86.6536959627  TIP3      2431            0.0000000000
     24642      2567  TIP3      H1             37.2848481194        9.0569365828       85.8408634117  TIP3      2431            0.0000000000
     24643      2567  TIP3      H2             38.2499833353        9.8373906853       86.6928331396  TIP3      2431            0.0000000000
     24644      2568  TIP3      OH2            35.6868255752        6.4391185701       85.1825678745  TIP3      2432            0.0000000000
     24645      2568  TIP3      H1             36.1531167150        6.7315968295       84.3882215903  TIP3      2432            0.0000000000
     24646      2568  TIP3      H2             35.4395479369        5.5238477979       84.9472104667  TIP3      2432            0.0000000000
     24647      2569  TIP3      OH2            34.9099463328        3.8979441522       84.4185259210  TIP3      2433            0.0000000000
     24648      2569  TIP3      H1             35.3956498952        3.4384088239       85.1428395555  TIP3      2433            0.0000000000
     24649      2569  TIP3      H2             34.1540050493        3.2850677097       84.3020453822  TIP3      2433            0.0000000000
     24650      2570  TIP3      OH2            36.8494354189        2.5369535479       86.1475500171  TIP3      2434            0.0000000000
     24651      2570  TIP3      H1             37.4522232029        1.9649431915       85.6186705709  TIP3      2434            0.0000000000
     24652      2570  TIP3      H2             37.5027150503        3.1548442160       86.5267726172  TIP3      2434            0.0000000000
     24653      2571  TIP3      OH2            20.9598556498        0.8117829137       87.2731146157  TIP3      2435            0.0000000000
     24654      2571  TIP3      H1             21.2557249980        1.2187169484       86.4284372509  TIP3      2435            0.0000000000
     24655      2571  TIP3      H2             20.0079772676        0.7110664760       87.1079509100  TIP3      2435            0.0000000000
     24656      2572  TIP3      OH2            22.0892443886        2.0211627654       85.1275101294  TIP3      2436            0.0000000000
     24657      2572  TIP3      H1             22.7094521804        1.3467876432       84.7987095239  TIP3      2436            0.0000000000
     24658      2572  TIP3      H2             22.5875575389        2.3764995650       85.9005588707  TIP3      2436            0.0000000000
     24659      2573  TIP3      OH2            29.7824625641       17.6304434842       86.5517243696  TIP3      2437            0.0000000000
     24660      2573  TIP3      H1             30.7378190035       17.7995977519       86.4962504617  TIP3      2437            0.0000000000
     24661      2573  TIP3      H2             29.6392520488       17.1495102844       85.7056521124  TIP3      2437            0.0000000000
     24662      2574  TIP3      OH2            21.5687306136       17.0717516732       84.6616834694  TIP3      2438            0.0000000000
     24663      2574  TIP3      H1             21.4964914470       17.5294055051       85.5313911043  TIP3      2438            0.0000000000
     24664      2574  TIP3      H2             22.3110986142       16.4527880199       84.8006731073  TIP3      2438            0.0000000000
     24665      2575  TIP3      OH2            48.3833162712        7.9146825157       85.2202686131  TIP3      2439            0.0000000000
     24666      2575  TIP3      H1             48.9656282524        8.2091883406       85.9488822290  TIP3      2439            0.0000000000
     24667      2575  TIP3      H2             48.8567723724        7.1253391264       84.9053106152  TIP3      2439            0.0000000000
     24668      2576  TIP3      OH2            50.6471641310        8.5873944473       87.0243461998  TIP3      2440            0.0000000000
     24669      2576  TIP3      H1             51.1097044612        8.9360340606       87.8180396762  TIP3      2440            0.0000000000
     24670      2576  TIP3      H2             51.3362930311        8.8272612532       86.3595954631  TIP3      2440            0.0000000000
     24671      2577  TIP3      OH2            53.6749527086        0.8795439124       87.5206536741  TIP3      2441            0.0000000000
     24672      2577  TIP3      H1             53.3459293425        1.7851139977       87.5995147526  TIP3      2441            0.0000000000
     24673      2577  TIP3      H2             54.6295841783        1.0778089215       87.3718755798  TIP3      2441            0.0000000000
     24674      2578  TIP3      OH2            55.7159704255       14.7420411977       84.9421402043  TIP3      2442            0.0000000000
     24675      2578  TIP3      H1             55.7675850580       15.7129343750       85.0565194971  TIP3      2442            0.0000000000
     24676      2578  TIP3      H2             56.2466871324       14.4667037044       85.7115082141  TIP3      2442            0.0000000000
     24677      2579  TIP3      OH2            51.4955398239       17.0487837677       85.9464631974  TIP3      2443            0.0000000000
     24678      2579  TIP3      H1             51.9072534929       16.4048796589       85.3215503947  TIP3      2443            0.0000000000
     24679      2579  TIP3      H2             52.0189867156       16.8919811201       86.7489372256  TIP3      2443            0.0000000000
     24680      2580  TIP3      OH2            52.6575280287        9.5338448928       85.5345988518  TIP3      2444            0.0000000000
     24681      2580  TIP3      H1             52.2638489002        9.6028769935       84.6361559216  TIP3      2444            0.0000000000
     24682      2580  TIP3      H2             53.5957955516        9.6974882110       85.3171238813  TIP3      2444            0.0000000000
     24683      2581  TIP3      OH2            48.1149063496        3.3205539921       85.6429665151  TIP3      2445            0.0000000000
     24684      2581  TIP3      H1             47.5917659841        4.1308811742       85.7127132731  TIP3      2445            0.0000000000
     24685      2581  TIP3      H2             47.5145952627        2.7208563630       85.1433373439  TIP3      2445            0.0000000000
     24686      2582  TIP3      OH2            44.2310116480        3.5999637818       84.8477424264  TIP3      2446            0.0000000000
     24687      2582  TIP3      H1             43.8104386344        3.4695500871       85.7273319016  TIP3      2446            0.0000000000
     24688      2582  TIP3      H2             43.8552829400        4.4571087131       84.5534241393  TIP3      2446            0.0000000000
     24689      2583  TIP3      OH2            38.8087097509        4.0077302874       87.3993198358  TIP3      2447            0.0000000000
     24690      2583  TIP3      H1             39.5139191535        4.3156552084       86.7956237436  TIP3      2447            0.0000000000
     24691      2583  TIP3      H2             38.3915632669        4.8606200461       87.5977636161  TIP3      2447            0.0000000000
     24692      2584  TIP3      OH2            43.7540418094        6.6998433712       85.9698119147  TIP3      2448            0.0000000000
     24693      2584  TIP3      H1             43.3914800963        6.4272915608       85.1028124518  TIP3      2448            0.0000000000
     24694      2584  TIP3      H2             44.4077612275        7.3445634041       85.6363459965  TIP3      2448            0.0000000000
     24695      2585  TIP3      OH2            50.7420928149        3.3719381827       86.2421720992  TIP3      2449            0.0000000000
     24696      2585  TIP3      H1             49.7578490832        3.2870588340       86.1598352489  TIP3      2449            0.0000000000
     24697      2585  TIP3      H2             50.8448746943        3.5397473896       87.1950260917  TIP3      2449            0.0000000000
     24698      2586  TIP3      OH2            47.8353140102       12.6484438990       85.9445084459  TIP3      2450            0.0000000000
     24699      2586  TIP3      H1             47.6698186133       13.5355264772       86.3444532571  TIP3      2450            0.0000000000
     24700      2586  TIP3      H2             47.9718253744       12.1126959450       86.7339908732  TIP3      2450            0.0000000000
     24701      2587  TIP3      OH2            40.9193000627        9.1244646353       85.6165581002  TIP3      2451            0.0000000000
     24702      2587  TIP3      H1             41.1800061993        9.8727177706       86.2050244274  TIP3      2451            0.0000000000
     24703      2587  TIP3      H2             40.1551629501        8.7595237379       86.0905133080  TIP3      2451            0.0000000000
     24704      2588  TIP3      OH2            52.3448495343       13.1192690525       86.0409584272  TIP3      2452            0.0000000000
     24705      2588  TIP3      H1             52.5393160220       13.2495384555       86.9829762166  TIP3      2452            0.0000000000
     24706      2588  TIP3      H2             51.4199195002       12.8143814236       86.0741433938  TIP3      2452            0.0000000000
     24707      2589  TIP3      OH2            55.9914760606       17.2889546748       85.7880179358  TIP3      2453            0.0000000000
     24708      2589  TIP3      H1             56.8180166995       17.7488662748       85.9914358926  TIP3      2453            0.0000000000
     24709      2589  TIP3      H2             55.3500776860       17.8582396567       86.2669020680  TIP3      2453            0.0000000000
     24710      2590  TIP3      OH2            45.9332254623       14.5178629268       84.4379684629  TIP3      2454            0.0000000000
     24711      2590  TIP3      H1             45.7785746569       13.8396683914       83.7640417874  TIP3      2454            0.0000000000
     24712      2590  TIP3      H2             45.5536986096       14.0621628488       85.2291558345  TIP3      2454            0.0000000000
     24713      2591  TIP3      OH2            44.7320598854       13.5945986098       86.8360006334  TIP3      2455            0.0000000000
     24714      2591  TIP3      H1             44.2712892777       13.0453243469       87.5107014177  TIP3      2455            0.0000000000
     24715      2591  TIP3      H2             44.7969067013       14.4673908475       87.2899699210  TIP3      2455            0.0000000000
     24716      2592  TIP3      OH2            41.1341451453       11.1245708855       87.3756537256  TIP3      2456            0.0000000000
     24717      2592  TIP3      H1             40.6668638901       10.7414781265       88.1479681581  TIP3      2456            0.0000000000
     24718      2592  TIP3      H2             42.0346383437       11.2691218782       87.7304819803  TIP3      2456            0.0000000000
     24719      2593  TIP3      OH2            47.3444354453       15.0240708588       87.1436158834  TIP3      2457            0.0000000000
     24720      2593  TIP3      H1             46.4312165154       15.3844240719       87.2152390786  TIP3      2457            0.0000000000
     24721      2593  TIP3      H2             47.8434671882       15.8582357675       87.0713986270  TIP3      2457            0.0000000000
     24722      2594  TIP3      OH2            44.9564373118       16.0443901867       87.8828346156  TIP3      2458            0.0000000000
     24723      2594  TIP3      H1             44.9604945595       16.7308192616       87.1697526022  TIP3      2458            0.0000000000
     24724      2594  TIP3      H2             44.6102628093       16.6182375625       88.5934153107  TIP3      2458            0.0000000000
     24725      2595  TIP3      OH2            42.8013991608        3.1343999451       87.2774451260  TIP3      2459            0.0000000000
     24726      2595  TIP3      H1             43.3785447971        3.8398084395       87.6543277357  TIP3      2459            0.0000000000
     24727      2595  TIP3      H2             43.2602716601        2.3458464155       87.6196658104  TIP3      2459            0.0000000000
     24728      2596  TIP3      OH2            41.9031690030       13.5937100157       85.8330110531  TIP3      2460            0.0000000000
     24729      2596  TIP3      H1             42.4711972909       13.7733161748       86.5920956771  TIP3      2460            0.0000000000
     24730      2596  TIP3      H2             42.3826517535       12.8614515831       85.4194869743  TIP3      2460            0.0000000000
     24731      2597  TIP3      OH2            39.9216029353        6.3736541725       85.7811150886  TIP3      2461            0.0000000000
     24732      2597  TIP3      H1             40.6925570518        6.9216258613       85.6028673973  TIP3      2461            0.0000000000
     24733      2597  TIP3      H2             39.3759997826        6.4769641618       84.9898355934  TIP3      2461            0.0000000000
     24734      2598  TIP3      OH2            48.0531554269       16.4628767413       84.4589609861  TIP3      2462            0.0000000000
     24735      2598  TIP3      H1             47.4565768585       15.6855665268       84.5564092563  TIP3      2462            0.0000000000
     24736      2598  TIP3      H2             48.8047634681       16.0610788999       83.9734356725  TIP3      2462            0.0000000000
     24737      2599  TIP3      OH2            52.5378177787       15.3021386018       84.2271785872  TIP3      2463            0.0000000000
     24738      2599  TIP3      H1             52.6257257693       14.5273757382       84.8291425416  TIP3      2463            0.0000000000
     24739      2599  TIP3      H2             53.4079543350       15.3132195999       83.7637776994  TIP3      2463            0.0000000000
     24740      2600  TIP3      OH2            43.3807704882       11.4706070372       84.3345592088  TIP3      2464            0.0000000000
     24741      2600  TIP3      H1             43.7930675594       11.1568188811       85.1627727270  TIP3      2464            0.0000000000
     24742      2600  TIP3      H2             44.1290685040       11.3384475133       83.7035788600  TIP3      2464            0.0000000000
     24743      2601  TIP3      OH2            48.7842108396       13.0671370600       83.4948347891  TIP3      2465            0.0000000000
     24744      2601  TIP3      H1             48.2843791161       12.9057839250       84.3310836130  TIP3      2465            0.0000000000
     24745      2601  TIP3      H2             49.0291478891       12.1257092944       83.3357842869  TIP3      2465            0.0000000000
     24746      2602  TIP3      OH2            44.6425366310       10.1475676630       86.7072854955  TIP3      2466            0.0000000000
     24747      2602  TIP3      H1             44.2687235234        9.2990140757       86.9914951765  TIP3      2466            0.0000000000
     24748      2602  TIP3      H2             45.4434270147        9.8561337833       86.2425996559  TIP3      2466            0.0000000000
     24749      2603  TIP3      OH2            45.4942768342        8.1823781348       84.4899062224  TIP3      2467            0.0000000000
     24750      2603  TIP3      H1             45.4394618270        8.2675783028       83.5160993010  TIP3      2467            0.0000000000
     24751      2603  TIP3      H2             46.4649314832        8.0894652276       84.5840214282  TIP3      2467            0.0000000000
     24752      2604  TIP3      OH2            55.1020310715        9.9471660962       84.4826558638  TIP3      2468            0.0000000000
     24753      2604  TIP3      H1             54.8930931510        9.5776497625       83.5965290407  TIP3      2468            0.0000000000
     24754      2604  TIP3      H2             54.9014507333       10.9108118974       84.3344556236  TIP3      2468            0.0000000000
     24755      2605  TIP3      OH2            45.6747186595       18.2129665418       86.5452250160  TIP3      2469            0.0000000000
     24756      2605  TIP3      H1             46.6421476472       18.1954306339       86.5810694111  TIP3      2469            0.0000000000
     24757      2605  TIP3      H2             45.5196521730       18.9454456816       85.9126596787  TIP3      2469            0.0000000000
     24758      2606  TIP3      OH2            38.9500809236       12.9731812673       85.8848783080  TIP3      2470            0.0000000000
     24759      2606  TIP3      H1             39.9263536715       13.0708083741       85.8690312770  TIP3      2470            0.0000000000
     24760      2606  TIP3      H2             38.8084772325       12.4493446135       85.0776414672  TIP3      2470            0.0000000000
     24761      2607  TIP3      OH2            56.6615683396        8.9680475620       86.4124410616  TIP3      2471            0.0000000000
     24762      2607  TIP3      H1             55.9848016210        9.1418986014       85.7247680740  TIP3      2471            0.0000000000
     24763      2607  TIP3      H2             56.2496445152        9.4247227063       87.1692463097  TIP3      2471            0.0000000000
     24764      2608  TIP3      OH2            54.1998822369        6.4413633127       85.1585079746  TIP3      2472            0.0000000000
     24765      2608  TIP3      H1             54.5692894064        6.2154897028       84.2954083899  TIP3      2472            0.0000000000
     24766      2608  TIP3      H2             53.6710056449        5.6791278996       85.4186491427  TIP3      2472            0.0000000000
     24767      2609  TIP3      OH2            54.1590402776        2.7986483408       84.8186024282  TIP3      2473            0.0000000000
     24768      2609  TIP3      H1             54.4614377864        3.1902273170       85.6474762102  TIP3      2473            0.0000000000
     24769      2609  TIP3      H2             53.1995707069        2.7620152743       84.9203737332  TIP3      2473            0.0000000000
     24770      2610  TIP3      OH2            56.2159657175        1.4487082250       86.6879777517  TIP3      2474            0.0000000000
     24771      2610  TIP3      H1             56.5418303804        1.3473486625       85.7554759944  TIP3      2474            0.0000000000
     24772      2610  TIP3      H2             56.4792519558        2.3694559350       86.8906869528  TIP3      2474            0.0000000000
     24773      2611  TIP3      OH2            39.7350966112        0.6548211222       87.4702208220  TIP3      2475            0.0000000000
     24774      2611  TIP3      H1             40.0865201687        1.0412692739       86.6293610090  TIP3      2475            0.0000000000
     24775      2611  TIP3      H2             38.8024815266        0.5811453395       87.2373872443  TIP3      2475            0.0000000000
     24776      2612  TIP3      OH2            40.8853004187        1.6590132177       85.2813372572  TIP3      2476            0.0000000000
     24777      2612  TIP3      H1             41.3222571843        0.9531738991       84.7482683849  TIP3      2476            0.0000000000
     24778      2612  TIP3      H2             41.6437768066        2.0606697218       85.7380728508  TIP3      2476            0.0000000000
     24779      2613  TIP3      OH2            48.8278136794       17.6305546516       86.7115694940  TIP3      2477            0.0000000000
     24780      2613  TIP3      H1             49.7980458750       17.6755525388       86.5880554663  TIP3      2477            0.0000000000
     24781      2613  TIP3      H2             48.5650122561       17.2719326633       85.8327578071  TIP3      2477            0.0000000000
     24782      2614  TIP3      OH2            40.5698760484       17.2362495922       84.7515081557  TIP3      2478            0.0000000000
     24783      2614  TIP3      H1             40.5925743161       17.2263122353       85.7227035612  TIP3      2478            0.0000000000
     24784      2614  TIP3      H2             41.1325799947       16.4712039738       84.5239086933  TIP3      2478            0.0000000000
     24785      2615  TIP3      OH2            63.0120834736        3.9680791404       84.9554347018  TIP3      2479            0.0000000000
     24786      2615  TIP3      H1             62.7733002753        3.9952096933       85.9032137228  TIP3      2479            0.0000000000
     24787      2615  TIP3      H2             62.3235015604        4.5389598020       84.5369129251  TIP3      2479            0.0000000000
     24788      2616  TIP3      OH2            57.5071007305        4.0707929813       87.3422738226  TIP3      2480            0.0000000000
     24789      2616  TIP3      H1             58.3309244022        4.3320573294       86.8863807597  TIP3      2480            0.0000000000
     24790      2616  TIP3      H2             56.9733028873        4.8736828800       87.2237825677  TIP3      2480            0.0000000000
     24791      2617  TIP3      OH2            62.0643883827        6.3771829825       86.3231458812  TIP3      2481            0.0000000000
     24792      2617  TIP3      H1             61.1450197945        6.1186201511       86.1189849433  TIP3      2481            0.0000000000
     24793      2617  TIP3      H2             62.3343903652        6.7262666865       85.4676631917  TIP3      2481            0.0000000000
     24794      2618  TIP3      OH2            59.2651133117        8.9549880050       85.5947622405  TIP3      2482            0.0000000000
     24795      2618  TIP3      H1             59.6829794880        9.6347068457       86.1793781666  TIP3      2482            0.0000000000
     24796      2618  TIP3      H2             58.3420695049        9.0042409282       85.9365819786  TIP3      2482            0.0000000000
     24797      2619  TIP3      OH2            64.6627314223       13.8185373825       84.5173865521  TIP3      2483            0.0000000000
     24798      2619  TIP3      H1             65.3558774181       13.1492692948       84.6314393920  TIP3      2483            0.0000000000
     24799      2619  TIP3      H2             64.0669902917       13.6191121265       85.2713691249  TIP3      2483            0.0000000000
     24800      2620  TIP3      OH2            63.2294952512       13.4151124853       86.8721698502  TIP3      2484            0.0000000000
     24801      2620  TIP3      H1             62.7933711586       12.9960854386       87.6395332003  TIP3      2484            0.0000000000
     24802      2620  TIP3      H2             63.2012084236       14.3548614678       87.1735904589  TIP3      2484            0.0000000000
     24803      2621  TIP3      OH2            60.2761493761       10.6827892589       87.4309535711  TIP3      2485            0.0000000000
     24804      2621  TIP3      H1             59.9256749217       10.2367873544       88.2234830715  TIP3      2485            0.0000000000
     24805      2621  TIP3      H2             61.2190643110       10.7682838135       87.6232126779  TIP3      2485            0.0000000000
     24806      2622  TIP3      OH2            63.2355131365       15.8853611539       87.8564080494  TIP3      2486            0.0000000000
     24807      2622  TIP3      H1             63.4615954090       16.5149673983       87.1356137357  TIP3      2486            0.0000000000
     24808      2622  TIP3      H2             63.5647386044       16.4046123865       88.6074897123  TIP3      2486            0.0000000000
     24809      2623  TIP3      OH2            62.0064751535        3.2869411426       87.4106017553  TIP3      2487            0.0000000000
     24810      2623  TIP3      H1             62.6452234569        3.7631472357       87.9891149092  TIP3      2487            0.0000000000
     24811      2623  TIP3      H2             62.4669239808        2.4433572869       87.2901118827  TIP3      2487            0.0000000000
     24812      2624  TIP3      OH2            60.5855894946       13.4750633386       85.8886243528  TIP3      2488            0.0000000000
     24813      2624  TIP3      H1             61.5167099464       13.5948827921       86.1430635042  TIP3      2488            0.0000000000
     24814      2624  TIP3      H2             60.6671664780       12.5991211746       85.4678512201  TIP3      2488            0.0000000000
     24815      2625  TIP3      OH2            59.1287310438        6.1915943208       85.6471240472  TIP3      2489            0.0000000000
     24816      2625  TIP3      H1             59.2005999733        7.1768407562       85.6841660326  TIP3      2489            0.0000000000
     24817      2625  TIP3      H2             58.3315406645        6.0414362901       85.1163831615  TIP3      2489            0.0000000000
     24818      2626  TIP3      OH2            61.7874827041       11.3970812552       84.3982187853  TIP3      2490            0.0000000000
     24819      2626  TIP3      H1             61.9836415252       10.7862520957       85.1337574228  TIP3      2490            0.0000000000
     24820      2626  TIP3      H2             62.6992073184       11.5942779276       84.1109894370  TIP3      2490            0.0000000000
     24821      2627  TIP3      OH2            63.3175592715        9.7913260355       86.2439341535  TIP3      2491            0.0000000000
     24822      2627  TIP3      H1             63.2400757806        8.9535448596       86.7264122526  TIP3      2491            0.0000000000
     24823      2627  TIP3      H2             63.7557558228        9.5101775926       85.4168667788  TIP3      2491            0.0000000000
     24824      2628  TIP3      OH2            64.9034781624        7.8521240266       84.8098919679  TIP3      2492            0.0000000000
     24825      2628  TIP3      H1             64.5827037868        7.0861683512       84.2978601596  TIP3      2492            0.0000000000
     24826      2628  TIP3      H2             65.4029040814        8.3129797764       84.1045648572  TIP3      2492            0.0000000000
     24827      2629  TIP3      OH2            64.6048377186       17.9047615948       86.3612839875  TIP3      2493            0.0000000000
     24828      2629  TIP3      H1             65.5142631875       17.8066531687       86.6839463129  TIP3      2493            0.0000000000
     24829      2629  TIP3      H2             64.7316857141       18.5799842985       85.6577926655  TIP3      2493            0.0000000000
     24830      2630  TIP3      OH2            57.6766849310       12.7835480405       86.0277485431  TIP3      2494            0.0000000000
     24831      2630  TIP3      H1             58.6199311784       12.9988910270       85.9070643299  TIP3      2494            0.0000000000
     24832      2630  TIP3      H2             57.4497970718       12.4678850065       85.1388469472  TIP3      2494            0.0000000000
     24833      2631  TIP3      OH2            58.9269646070        0.9563591740       87.3013126409  TIP3      2495            0.0000000000
     24834      2631  TIP3      H1             59.2237628311        1.5899262729       86.6071049838  TIP3      2495            0.0000000000
     24835      2631  TIP3      H2             58.0079332101        0.7800162921       87.0303076132  TIP3      2495            0.0000000000
     24836      2632  TIP3      OH2            60.2898685806        2.0472882076       85.2390044448  TIP3      2496            0.0000000000
     24837      2632  TIP3      H1             60.5117097401        1.3476176104       84.5910603655  TIP3      2496            0.0000000000
     24838      2632  TIP3      H2             61.1638425641        2.2384151654       85.6262335524  TIP3      2496            0.0000000000
     24839      2633  TIP3      OH2            59.4940680255       16.8848908214       84.6378166248  TIP3      2497            0.0000000000
     24840      2633  TIP3      H1             59.1520969332       16.3390215433       85.3589037738  TIP3      2497            0.0000000000
     24841      2633  TIP3      H2             60.2138159092       16.3133818452       84.3087828610  TIP3      2497            0.0000000000
     24842      2634  TIP3      OH2            10.7548914485       26.8113287465       85.2148134356  TIP3      2498            0.0000000000
     24843      2634  TIP3      H1             11.5000040821       27.0310124238       85.8115947658  TIP3      2498            0.0000000000
     24844      2634  TIP3      H2             10.7237223425       25.8536071154       85.3596592531  TIP3      2498            0.0000000000
     24845      2635  TIP3      OH2            13.2441483839       27.0799614126       86.7879467571  TIP3      2499            0.0000000000
     24846      2635  TIP3      H1             13.5373515793       27.2092798482       87.7153129928  TIP3      2499            0.0000000000
     24847      2635  TIP3      H2             13.8291292630       27.7031792937       86.2996214370  TIP3      2499            0.0000000000
     24848      2636  TIP3      OH2            16.5594631117       19.0176422054       87.3292813418  TIP3      2500            0.0000000000
     24849      2636  TIP3      H1             15.8345187973       19.3836691885       87.8464649972  TIP3      2500            0.0000000000
     24850      2636  TIP3      H2             17.0931102194       19.8039257216       87.0806507973  TIP3      2500            0.0000000000
     24851      2637  TIP3      OH2            17.8785174890       33.5759679826       84.8824039481  TIP3      2501            0.0000000000
     24852      2637  TIP3      H1             18.0400687363       34.5244276454       85.0806365832  TIP3      2501            0.0000000000
     24853      2637  TIP3      H2             18.3495741546       33.1748537457       85.6416946280  TIP3      2501            0.0000000000
     24854      2638  TIP3      OH2            13.6394551418       36.0082168748       85.9010955677  TIP3      2502            0.0000000000
     24855      2638  TIP3      H1             13.9798134443       35.3170413796       85.2780866999  TIP3      2502            0.0000000000
     24856      2638  TIP3      H2             13.9556747303       35.6587713243       86.7566721996  TIP3      2502            0.0000000000
     24857      2639  TIP3      OH2            14.7591014695       28.9643437653       85.5642987096  TIP3      2503            0.0000000000
     24858      2639  TIP3      H1             14.5252148856       28.8394535553       84.6184174651  TIP3      2503            0.0000000000
     24859      2639  TIP3      H2             15.6855556988       29.2297895009       85.4529369614  TIP3      2503            0.0000000000
     24860      2640  TIP3      OH2            10.4174884274       21.8562001430       85.9514611363  TIP3      2504            0.0000000000
     24861      2640  TIP3      H1              9.8956781112       21.8476380109       86.7608837120  TIP3      2504            0.0000000000
     24862      2640  TIP3      H2              9.9241522522       21.2447425280       85.3915509927  TIP3      2504            0.0000000000
     24863      2641  TIP3      OH2             6.5018615695       22.7222602844       84.6880524967  TIP3      2505            0.0000000000
     24864      2641  TIP3      H1              6.0194736440       22.7113756706       85.5356066566  TIP3      2505            0.0000000000
     24865      2641  TIP3      H2              6.1320488544       23.5310062329       84.2669406220  TIP3      2505            0.0000000000
     24866      2642  TIP3      OH2             1.5982636344       22.9058735708       87.4333435046  TIP3      2506            0.0000000000
     24867      2642  TIP3      H1              1.7744163505       23.2905740105       86.5458531304  TIP3      2506            0.0000000000
     24868      2642  TIP3      H2              0.6696679791       23.1078965797       87.6157696020  TIP3      2506            0.0000000000
     24869      2643  TIP3      OH2             5.7129001117       25.0364926442       86.2142960574  TIP3      2507            0.0000000000
     24870      2643  TIP3      H1              4.9122831270       24.8823560011       85.6948128821  TIP3      2507            0.0000000000
     24871      2643  TIP3      H2              6.2584176499       25.5233163049       85.5741969984  TIP3      2507            0.0000000000
     24872      2644  TIP3      OH2            12.7638254391       23.3061004803       85.5528252255  TIP3      2508            0.0000000000
     24873      2644  TIP3      H1             11.8646285970       23.0061461323       85.8295371070  TIP3      2508            0.0000000000
     24874      2644  TIP3      H2             13.2376486433       23.3245451015       86.3928103453  TIP3      2508            0.0000000000
     24875      2645  TIP3      OH2            10.2721923772       31.5418734036       86.0199733419  TIP3      2509            0.0000000000
     24876      2645  TIP3      H1             10.1208578507       32.4113469553       86.4632469805  TIP3      2509            0.0000000000
     24877      2645  TIP3      H2             10.1701698543       30.9227559962       86.7536213860  TIP3      2509            0.0000000000
     24878      2646  TIP3      OH2             2.7842647727       28.0645000198       85.7336659946  TIP3      2510            0.0000000000
     24879      2646  TIP3      H1              3.3484647042       28.2557076190       86.5089687599  TIP3      2510            0.0000000000
     24880      2646  TIP3      H2              1.9395602044       28.4171178033       86.0600081383  TIP3      2510            0.0000000000
     24881      2647  TIP3      OH2            14.4835860803       31.9487764295       85.8594753075  TIP3      2511            0.0000000000
     24882      2647  TIP3      H1             14.3196399065       32.1409568275       86.7942067106  TIP3      2511            0.0000000000
     24883      2647  TIP3      H2             13.7072362341       31.3973333367       85.6632683745  TIP3      2511            0.0000000000
     24884      2648  TIP3      OH2            18.4741648622       36.0060144365       85.8637013348  TIP3      2512            0.0000000000
     24885      2648  TIP3      H1             19.2808288975       36.5200791484       86.0246838933  TIP3      2512            0.0000000000
     24886      2648  TIP3      H2             17.8240773584       36.5607489763       86.3467779757  TIP3      2512            0.0000000000
     24887      2649  TIP3      OH2             8.2598972038       33.2696308487       84.1958232088  TIP3      2513            0.0000000000
     24888      2649  TIP3      H1              8.0986845425       32.5529566007       83.5690020417  TIP3      2513            0.0000000000
     24889      2649  TIP3      H2              8.3898944770       32.7864506951       85.0282433483  TIP3      2513            0.0000000000
     24890      2650  TIP3      OH2             6.9705379277       32.1621872324       87.0325869728  TIP3      2514            0.0000000000
     24891      2650  TIP3      H1              6.4569154819       31.7355965426       87.7468493978  TIP3      2514            0.0000000000
     24892      2650  TIP3      H2              7.0855156744       33.0839887018       87.3520207368  TIP3      2514            0.0000000000
     24893      2651  TIP3      OH2             3.3912352375       29.9132047010       87.6982987711  TIP3      2515            0.0000000000
     24894      2651  TIP3      H1              3.0924680942       29.2700952242       88.3878207044  TIP3      2515            0.0000000000
     24895      2651  TIP3      H2              4.3069529806       30.0725446207       88.0133322420  TIP3      2515            0.0000000000
     24896      2652  TIP3      OH2             9.6137899187       34.0142152172       86.8517540551  TIP3      2516            0.0000000000
     24897      2652  TIP3      H1              8.7562145548       34.3620488617       87.1757995674  TIP3      2516            0.0000000000
     24898      2652  TIP3      H2             10.1524428009       34.8275292910       86.9180152569  TIP3      2516            0.0000000000
     24899      2653  TIP3      OH2             7.2368268944       34.7993636365       87.7515830652  TIP3      2517            0.0000000000
     24900      2653  TIP3      H1              6.9265955234       35.4026532645       87.0505868621  TIP3      2517            0.0000000000
     24901      2653  TIP3      H2              7.2455485456       35.4332452400       88.4864000032  TIP3      2517            0.0000000000
     24902      2654  TIP3      OH2             5.4277903588       21.4778106700       87.0845914537  TIP3      2518            0.0000000000
     24903      2654  TIP3      H1              6.1169291200       22.0452568200       87.4897938797  TIP3      2518            0.0000000000
     24904      2654  TIP3      H2              5.9761981539       20.8283790498       86.6064871193  TIP3      2518            0.0000000000
     24905      2655  TIP3      OH2             4.2280401569       33.0029008089       86.1267856459  TIP3      2519            0.0000000000
     24906      2655  TIP3      H1              4.2757170279       33.6212302074       86.8686323135  TIP3      2519            0.0000000000
     24907      2655  TIP3      H2              5.1147531412       33.0968130717       85.7313784629  TIP3      2519            0.0000000000
     24908      2656  TIP3      OH2             2.2655895116       24.8474589011       85.5192143562  TIP3      2520            0.0000000000
     24909      2656  TIP3      H1              2.7901115629       25.6496121996       85.6568338131  TIP3      2520            0.0000000000
     24910      2656  TIP3      H2              1.4082589267       25.2354820457       85.3143444933  TIP3      2520            0.0000000000
     24911      2657  TIP3      OH2            10.4299744901       35.2388690154       84.2237896565  TIP3      2521            0.0000000000
     24912      2657  TIP3      H1              9.9812039031       34.3659553381       84.3139127355  TIP3      2521            0.0000000000
     24913      2657  TIP3      H2             11.2834708850       34.9851635191       83.8050010052  TIP3      2521            0.0000000000
     24914      2658  TIP3      OH2            14.7495234192       34.2522794130       84.2097794905  TIP3      2522            0.0000000000
     24915      2658  TIP3      H1             14.7842311524       33.4964422931       84.8303639925  TIP3      2522            0.0000000000
     24916      2658  TIP3      H2             15.6114351871       34.1805120653       83.7529521786  TIP3      2522            0.0000000000
     24917      2659  TIP3      OH2             5.8560244990       30.1358345547       84.2381778552  TIP3      2523            0.0000000000
     24918      2659  TIP3      H1              6.2213087048       29.7655525237       85.0664504190  TIP3      2523            0.0000000000
     24919      2659  TIP3      H2              6.6389804268       29.9956409114       83.6473891077  TIP3      2523            0.0000000000
     24920      2660  TIP3      OH2            11.3247233164       31.7362146037       83.5276232289  TIP3      2524            0.0000000000
     24921      2660  TIP3      H1             10.8321184996       31.7240250208       84.3767842222  TIP3      2524            0.0000000000
     24922      2660  TIP3      H2             11.3837236384       30.7649752426       83.3836469893  TIP3      2524            0.0000000000
     24923      2661  TIP3      OH2             6.9652800948       28.5317244761       86.1147759965  TIP3      2525            0.0000000000
     24924      2661  TIP3      H1              7.0305404110       27.6288895212       86.4842418680  TIP3      2525            0.0000000000
     24925      2661  TIP3      H2              7.8441083873       28.6363478730       85.6990502229  TIP3      2525            0.0000000000
     24926      2662  TIP3      OH2             7.7740044447       26.3334755037       84.4582064846  TIP3      2526            0.0000000000
     24927      2662  TIP3      H1              7.3038445697       26.6458417804       83.6560538477  TIP3      2526            0.0000000000
     24928      2662  TIP3      H2              8.6877068647       26.6236259452       84.2970392088  TIP3      2526            0.0000000000
     24929      2663  TIP3      OH2            17.5819912837       28.9438383166       84.5383044026  TIP3      2527            0.0000000000
     24930      2663  TIP3      H1             17.3964092734       28.4643792558       83.6950970935  TIP3      2527            0.0000000000
     24931      2663  TIP3      H2             17.2843540155       29.8574213757       84.2904228133  TIP3      2527            0.0000000000
     24932      2664  TIP3      OH2             8.2858058937       37.2174811354       86.9895814378  TIP3      2528            0.0000000000
     24933      2664  TIP3      H1              9.2212869558       37.0260280072       86.7922347241  TIP3      2528            0.0000000000
     24934      2664  TIP3      H2              8.0953328189       37.8867355819       86.3026405336  TIP3      2528            0.0000000000
     24935      2665  TIP3      OH2             0.6222266574       32.6507377934       85.4873943022  TIP3      2529            0.0000000000
     24936      2665  TIP3      H1              0.5258206803       33.3064573964       86.1922753211  TIP3      2529            0.0000000000
     24937      2665  TIP3      H2             -0.3130513573       32.6264071701       85.1629320670  TIP3      2529            0.0000000000
     24938      2666  TIP3      OH2            19.1758299292       27.9534177071       86.5231126297  TIP3      2530            0.0000000000
     24939      2666  TIP3      H1             18.5423212691       27.9624989451       85.7744028807  TIP3      2530            0.0000000000
     24940      2666  TIP3      H2             19.3697646444       28.8991764960       86.6582841487  TIP3      2530            0.0000000000
     24941      2667  TIP3      OH2            16.8988438731       25.4337446261       85.1996295216  TIP3      2531            0.0000000000
     24942      2667  TIP3      H1             17.4023079984       25.7285255792       84.4141758715  TIP3      2531            0.0000000000
     24943      2667  TIP3      H2             16.7278205746       24.4929870748       84.9986237816  TIP3      2531            0.0000000000
     24944      2668  TIP3      OH2            16.6778134585       22.7318951648       84.5983763506  TIP3      2532            0.0000000000
     24945      2668  TIP3      H1             17.2351413217       22.1402169974       85.1501906255  TIP3      2532            0.0000000000
     24946      2668  TIP3      H2             15.7827125249       22.4923779023       84.8844954509  TIP3      2532            0.0000000000
     24947      2669  TIP3      OH2            18.1754547053       20.8120485544       86.2543168087  TIP3      2533            0.0000000000
     24948      2669  TIP3      H1             18.5413110382       20.3368211763       85.4671343221  TIP3      2533            0.0000000000
     24949      2669  TIP3      H2             18.9544891891       21.3309178586       86.5406236977  TIP3      2533            0.0000000000
     24950      2670  TIP3      OH2             1.3247394517       19.4167139427       86.8949527872  TIP3      2534            0.0000000000
     24951      2670  TIP3      H1              2.1551822137       19.7490325131       86.5397323991  TIP3      2534            0.0000000000
     24952      2670  TIP3      H2              0.7175883651       20.0532605390       86.4978766355  TIP3      2534            0.0000000000
     24953      2671  TIP3      OH2             3.1538980161       21.3193297319       85.4925953617  TIP3      2535            0.0000000000
     24954      2671  TIP3      H1              3.8497677125       20.8448719790       85.0056918887  TIP3      2535            0.0000000000
     24955      2671  TIP3      H2              3.6281232518       21.4849845604       86.3268137927  TIP3      2535            0.0000000000
     24956      2672  TIP3      OH2            10.9631653742       36.4660741644       86.5528140566  TIP3      2536            0.0000000000
     24957      2672  TIP3      H1             11.9162914266       36.5541245181       86.3402525594  TIP3      2536            0.0000000000
     24958      2672  TIP3      H2             10.6504646767       36.0855581059       85.7005891840  TIP3      2536            0.0000000000
     24959      2673  TIP3      OH2             3.4234715673       35.6160796568       84.4647858694  TIP3      2537            0.0000000000
     24960      2673  TIP3      H1              3.3681704922       36.0563926630       85.3263604167  TIP3      2537            0.0000000000
     24961      2673  TIP3      H2              4.3480003314       35.2789783899       84.4921954712  TIP3      2537            0.0000000000
     24962      2674  TIP3      OH2            29.6176187951       26.9371387151       85.0772507857  TIP3      2538            0.0000000000
     24963      2674  TIP3      H1             30.2449091475       27.1931151063       85.7919322716  TIP3      2538            0.0000000000
     24964      2674  TIP3      H2             29.5458955665       25.9763499798       85.2096299038  TIP3      2538            0.0000000000
     24965      2675  TIP3      OH2            31.8532456529       27.3246416567       86.8037717593  TIP3      2539            0.0000000000
     24966      2675  TIP3      H1             32.1783943977       27.4010979001       87.7269927980  TIP3      2539            0.0000000000
     24967      2675  TIP3      H2             32.6461155381       27.6328203808       86.3037856840  TIP3      2539            0.0000000000
     24968      2676  TIP3      OH2            35.6971024109       18.9211333546       87.3460626771  TIP3      2540            0.0000000000
     24969      2676  TIP3      H1             34.9314625923       19.1783309475       87.8685851076  TIP3      2540            0.0000000000
     24970      2676  TIP3      H2             36.0650388316       19.7885508084       87.0578981343  TIP3      2540            0.0000000000
     24971      2677  TIP3      OH2            37.6047999108       33.4207398853       85.2383980105  TIP3      2541            0.0000000000
     24972      2677  TIP3      H1             37.5444104556       34.1719351882       85.8548757377  TIP3      2541            0.0000000000
     24973      2677  TIP3      H2             38.0219882623       32.7444372277       85.8092780165  TIP3      2541            0.0000000000
     24974      2678  TIP3      OH2            32.4106222945       36.0461759018       86.6956379954  TIP3      2542            0.0000000000
     24975      2678  TIP3      H1             32.5477672740       35.7692353971       85.7765927607  TIP3      2542            0.0000000000
     24976      2678  TIP3      H2             33.2051763643       35.6452345368       87.1014230760  TIP3      2542            0.0000000000
     24977      2679  TIP3      OH2            33.8435282896       28.7885423311       85.7374503664  TIP3      2543            0.0000000000
     24978      2679  TIP3      H1             33.4182864972       28.7178141258       84.8612534576  TIP3      2543            0.0000000000
     24979      2679  TIP3      H2             34.7768592638       28.7970588287       85.4415812545  TIP3      2543            0.0000000000
     24980      2680  TIP3      OH2            29.4457959104       21.9309500252       86.0865591346  TIP3      2544            0.0000000000
     24981      2680  TIP3      H1             28.6809547946       22.3469420417       86.5004390231  TIP3      2544            0.0000000000
     24982      2680  TIP3      H2             29.0592473782       21.3536165318       85.4119870365  TIP3      2544            0.0000000000
     24983      2681  TIP3      OH2            25.4429864562       22.5989374841       84.7850659739  TIP3      2545            0.0000000000
     24984      2681  TIP3      H1             24.9595067646       22.5742794450       85.6274454576  TIP3      2545            0.0000000000
     24985      2681  TIP3      H2             24.9761706244       23.3368238788       84.3154143832  TIP3      2545            0.0000000000
     24986      2682  TIP3      OH2            19.9703562126       22.6911963327       87.1483224872  TIP3      2546            0.0000000000
     24987      2682  TIP3      H1             20.8445237044       22.8930676463       86.7564218349  TIP3      2546            0.0000000000
     24988      2682  TIP3      H2             19.6041560911       23.5845436516       87.1843927180  TIP3      2546            0.0000000000
     24989      2683  TIP3      OH2            24.4931928941       25.1914450030       86.2249891049  TIP3      2547            0.0000000000
     24990      2683  TIP3      H1             23.7360829328       24.9538140205       85.6485210809  TIP3      2547            0.0000000000
     24991      2683  TIP3      H2             25.0087252211       25.7622878035       85.6302193891  TIP3      2547            0.0000000000
     24992      2684  TIP3      OH2            31.7689533056       23.2706634465       86.0642765447  TIP3      2548            0.0000000000
     24993      2684  TIP3      H1             30.9206400780       22.8067359279       86.2669976244  TIP3      2548            0.0000000000
     24994      2684  TIP3      H2             32.1333297635       23.4648680032       86.9456113456  TIP3      2548            0.0000000000
     24995      2685  TIP3      OH2            29.3981500191       31.6301175110       85.9348007672  TIP3      2549            0.0000000000
     24996      2685  TIP3      H1             29.4032712449       32.5504397891       86.2763318931  TIP3      2549            0.0000000000
     24997      2685  TIP3      H2             29.2454376887       31.1532522536       86.7612797923  TIP3      2549            0.0000000000
     24998      2686  TIP3      OH2            21.9210897023       27.8990236652       85.6746638429  TIP3      2550            0.0000000000
     24999      2686  TIP3      H1             22.2338807640       28.6409582847       86.2491242348  TIP3      2550            0.0000000000
     25000      2686  TIP3      H2             21.0186551495       27.7748740660       86.0253432865  TIP3      2550            0.0000000000
     25001      2687  TIP3      OH2            33.3207975353       32.0063663804       85.9702634760  TIP3      2551            0.0000000000
     25002      2687  TIP3      H1             32.7505402741       32.0341921929       86.7565082356  TIP3      2551            0.0000000000
     25003      2687  TIP3      H2             32.7627446402       31.4898332573       85.3664282821  TIP3      2551            0.0000000000
     25004      2688  TIP3      OH2            37.4282250834       36.3639728551       86.3598428177  TIP3      2552            0.0000000000
     25005      2688  TIP3      H1             37.3897652105       37.1414338093       85.7924881352  TIP3      2552            0.0000000000
     25006      2688  TIP3      H2             36.4948512717       36.1570689344       86.5108352498  TIP3      2552            0.0000000000
     25007      2689  TIP3      OH2            26.5599535699       33.0186342309       84.5400442205  TIP3      2553            0.0000000000
     25008      2689  TIP3      H1             26.7689574434       32.2899496690       83.9411049145  TIP3      2553            0.0000000000
     25009      2689  TIP3      H2             26.3584575741       32.5920913224       85.4010048779  TIP3      2553            0.0000000000
     25010      2690  TIP3      OH2            25.7976480276       32.3459496548       86.9831111198  TIP3      2554            0.0000000000
     25011      2690  TIP3      H1             25.1205963002       31.9672810757       87.5877244869  TIP3      2554            0.0000000000
     25012      2690  TIP3      H2             26.0339851033       33.1956347008       87.4276972360  TIP3      2554            0.0000000000
     25013      2691  TIP3      OH2            22.2576185387       29.9286242453       87.3446480029  TIP3      2555            0.0000000000
     25014      2691  TIP3      H1             21.7985428479       29.4097005280       88.0396124226  TIP3      2555            0.0000000000
     25015      2691  TIP3      H2             23.0644738548       30.2035106852       87.8244076482  TIP3      2555            0.0000000000
     25016      2692  TIP3      OH2            28.8536373508       34.0688592183       86.8619636792  TIP3      2556            0.0000000000
     25017      2692  TIP3      H1             27.9190069726       34.1997197686       87.1157208239  TIP3      2556            0.0000000000
     25018      2692  TIP3      H2             29.0847052316       34.9859931788       86.6080802609  TIP3      2556            0.0000000000
     25019      2693  TIP3      OH2            26.4590930684       34.7858821368       87.7576755816  TIP3      2557            0.0000000000
     25020      2693  TIP3      H1             26.3373357224       35.4957476935       87.0685893312  TIP3      2557            0.0000000000
     25021      2693  TIP3      H2             26.3529386834       35.3134693855       88.5659082546  TIP3      2557            0.0000000000
     25022      2694  TIP3      OH2            24.4718073058       21.3161362965       87.3760527976  TIP3      2558            0.0000000000
     25023      2694  TIP3      H1             25.1867931385       21.8416145157       87.7722983130  TIP3      2558            0.0000000000
     25024      2694  TIP3      H2             24.9726282914       20.6736440001       86.8510853072  TIP3      2558            0.0000000000
     25025      2695  TIP3      OH2            23.1116141391       32.4389734071       85.6036274846  TIP3      2559            0.0000000000
     25026      2695  TIP3      H1             24.0108652792       32.6934724391       85.8672543311  TIP3      2559            0.0000000000
     25027      2695  TIP3      H2             23.1996928040       31.4812356757       85.4555276690  TIP3      2559            0.0000000000
     25028      2696  TIP3      OH2            21.7101995885       24.9729924206       85.4018086568  TIP3      2560            0.0000000000
     25029      2696  TIP3      H1             21.9750557464       25.7805411376       85.8801925401  TIP3      2560            0.0000000000
     25030      2696  TIP3      H2             20.7491266810       25.0674207369       85.3437413674  TIP3      2560            0.0000000000
     25031      2697  TIP3      OH2            28.5241237463       34.7206337590       84.1220069433  TIP3      2561            0.0000000000
     25032      2697  TIP3      H1             28.1000416182       33.9105181024       84.4618053689  TIP3      2561            0.0000000000
     25033      2697  TIP3      H2             29.4245628317       34.3893153014       83.9051039373  TIP3      2561            0.0000000000
     25034      2698  TIP3      OH2            34.4555388310       34.7238668833       85.0183210018  TIP3      2562            0.0000000000
     25035      2698  TIP3      H1             34.0187237333       33.9129702490       85.3263962465  TIP3      2562            0.0000000000
     25036      2698  TIP3      H2             34.6316606860       34.5404117698       84.0740346495  TIP3      2562            0.0000000000
     25037      2699  TIP3      OH2            24.5780717818       30.2341371671       84.4328814681  TIP3      2563            0.0000000000
     25038      2699  TIP3      H1             25.0631666407       30.2606717067       85.2789930814  TIP3      2563            0.0000000000
     25039      2699  TIP3      H2             25.3200019978       30.0404698446       83.8113538710  TIP3      2563            0.0000000000
     25040      2700  TIP3      OH2            29.6348903244       31.8202531593       83.3613500021  TIP3      2564            0.0000000000
     25041      2700  TIP3      H1             29.6010137154       31.8204808764       84.3460589814  TIP3      2564            0.0000000000
     25042      2700  TIP3      H2             29.5572395468       30.8489661194       83.2909035128  TIP3      2564            0.0000000000
     25043      2701  TIP3      OH2            26.0269426364       28.8845521695       86.7638946556  TIP3      2565            0.0000000000
     25044      2701  TIP3      H1             25.4355980159       28.2287449093       87.1539014982  TIP3      2565            0.0000000000
     25045      2701  TIP3      H2             26.4637588906       28.3282222351       86.0924118982  TIP3      2565            0.0000000000
     25046      2702  TIP3      OH2            26.7005369238       27.0201545876       84.5434878762  TIP3      2566            0.0000000000
     25047      2702  TIP3      H1             26.4163112879       27.1425491041       83.6112900114  TIP3      2566            0.0000000000
     25048      2702  TIP3      H2             27.6722828567       26.9527779520       84.4192004449  TIP3      2566            0.0000000000
     25049      2703  TIP3      OH2            36.3389612219       29.0425696734       84.5959642115  TIP3      2567            0.0000000000
     25050      2703  TIP3      H1             36.1330706542       28.7436557230       83.6808808678  TIP3      2567            0.0000000000
     25051      2703  TIP3      H2             36.2135338121       30.0240214184       84.4961744445  TIP3      2567            0.0000000000
     25052      2704  TIP3      OH2            26.7775448377       37.0069476668       86.4139221458  TIP3      2568            0.0000000000
     25053      2704  TIP3      H1             27.7433031054       37.1093093227       86.2859887720  TIP3      2568            0.0000000000
     25054      2704  TIP3      H2             26.4512427481       37.6530004426       85.7511907982  TIP3      2568            0.0000000000
     25055      2705  TIP3      OH2            19.9497840001       31.9262574328       86.0942366358  TIP3      2569            0.0000000000
     25056      2705  TIP3      H1             20.7892175949       32.4257336384       86.0841517628  TIP3      2569            0.0000000000
     25057      2705  TIP3      H2             20.0206618315       31.4194517062       85.2613310690  TIP3      2569            0.0000000000
     25058      2706  TIP3      OH2            37.7256856074       27.8946022574       86.6587826446  TIP3      2570            0.0000000000
     25059      2706  TIP3      H1             37.1631257838       27.9764098653       85.8587450207  TIP3      2570            0.0000000000
     25060      2706  TIP3      H2             37.7590886225       28.8210671551       86.9383763428  TIP3      2570            0.0000000000
     25061      2707  TIP3      OH2            35.6950755377       25.4023220063       85.3886935776  TIP3      2571            0.0000000000
     25062      2707  TIP3      H1             36.1748730195       25.7926908158       84.6362096030  TIP3      2571            0.0000000000
     25063      2707  TIP3      H2             35.6098283251       24.4629081334       85.1380331561  TIP3      2571            0.0000000000
     25064      2708  TIP3      OH2            35.3901459741       22.7196609017       84.6926315142  TIP3      2572            0.0000000000
     25065      2708  TIP3      H1             35.9320116007       22.1124755601       85.2473678388  TIP3      2572            0.0000000000
     25066      2708  TIP3      H2             34.5026845300       22.5753173446       85.0525065955  TIP3      2572            0.0000000000
     25067      2709  TIP3      OH2            37.0274308056       20.9961743119       86.2140327916  TIP3      2573            0.0000000000
     25068      2709  TIP3      H1             37.3468875730       20.5161983089       85.4093689584  TIP3      2573            0.0000000000
     25069      2709  TIP3      H2             37.8712037758       21.3106943349       86.5777574542  TIP3      2573            0.0000000000
     25070      2710  TIP3      OH2            20.9617967252       19.0594401950       86.6295240101  TIP3      2574            0.0000000000
     25071      2710  TIP3      H1             21.1788397683       19.8913812701       86.1828537058  TIP3      2574            0.0000000000
     25072      2710  TIP3      H2             20.4718290765       19.3382253219       87.4160062062  TIP3      2574            0.0000000000
     25073      2711  TIP3      OH2            22.4151252391       21.5770406552       85.7357571605  TIP3      2575            0.0000000000
     25074      2711  TIP3      H1             22.9764546924       21.1276402344       85.0759717393  TIP3      2575            0.0000000000
     25075      2711  TIP3      H2             22.9780039483       21.5542187233       86.5424867989  TIP3      2575            0.0000000000
     25076      2712  TIP3      OH2            29.5624700805       36.6844209571       85.9737073982  TIP3      2576            0.0000000000
     25077      2712  TIP3      H1             30.4761144221       36.9962093547       86.0828501705  TIP3      2576            0.0000000000
     25078      2712  TIP3      H2             29.6774282447       35.9899945189       85.3010847080  TIP3      2576            0.0000000000
     25079      2713  TIP3      OH2            21.6338360418       35.7099380300       84.3602401607  TIP3      2577            0.0000000000
     25080      2713  TIP3      H1             21.6621689827       36.0431202502       85.2708935370  TIP3      2577            0.0000000000
     25081      2713  TIP3      H2             22.1950034720       34.9091234692       84.4058012689  TIP3      2577            0.0000000000
     25082      2714  TIP3      OH2            48.5178384073       26.8914032543       85.2839610420  TIP3      2578            0.0000000000
     25083      2714  TIP3      H1             49.2850502071       27.0112347507       85.8797931341  TIP3      2578            0.0000000000
     25084      2714  TIP3      H2             48.4803894968       25.9163191917       85.2680277582  TIP3      2578            0.0000000000
     25085      2715  TIP3      OH2            51.0384420589       27.3789996741       87.1571327364  TIP3      2579            0.0000000000
     25086      2715  TIP3      H1             51.4059291637       27.2518628666       88.0508821431  TIP3      2579            0.0000000000
     25087      2715  TIP3      H2             51.8172279938       27.6898381603       86.6274667288  TIP3      2579            0.0000000000
     25088      2716  TIP3      OH2            54.4656552224       19.0555311327       87.0903364914  TIP3      2580            0.0000000000
     25089      2716  TIP3      H1             53.7574312082       19.3446012643       87.6703347001  TIP3      2580            0.0000000000
     25090      2716  TIP3      H2             54.9751399354       19.8791321030       86.9396632189  TIP3      2580            0.0000000000
     25091      2717  TIP3      OH2            55.7823921629       33.7918761703       84.8887775376  TIP3      2581            0.0000000000
     25092      2717  TIP3      H1             55.7748938274       34.7706960300       84.9327729765  TIP3      2581            0.0000000000
     25093      2717  TIP3      H2             56.1890214527       33.6295165119       85.7508824700  TIP3      2581            0.0000000000
     25094      2718  TIP3      OH2            51.5181703389       36.2474012450       86.0186980766  TIP3      2582            0.0000000000
     25095      2718  TIP3      H1             51.8175298505       35.5111608290       85.4320167075  TIP3      2582            0.0000000000
     25096      2718  TIP3      H2             52.0165898205       36.0660365243       86.8378110326  TIP3      2582            0.0000000000
     25097      2719  TIP3      OH2            52.7087259434       28.6717050572       85.4668586315  TIP3      2583            0.0000000000
     25098      2719  TIP3      H1             52.3970258568       28.5394914994       84.5459910369  TIP3      2583            0.0000000000
     25099      2719  TIP3      H2             53.5814970008       29.0704291743       85.2962382220  TIP3      2583            0.0000000000
     25100      2720  TIP3      OH2            48.3928664165       22.1807617416       86.1217392597  TIP3      2584            0.0000000000
     25101      2720  TIP3      H1             47.6132384643       21.7970527993       86.5397423087  TIP3      2584            0.0000000000
     25102      2720  TIP3      H2             48.5174058625       21.6381860085       85.3186657292  TIP3      2584            0.0000000000
     25103      2721  TIP3      OH2            44.3933431881       22.5808726850       84.8910304892  TIP3      2585            0.0000000000
     25104      2721  TIP3      H1             43.9730343122       22.5347169925       85.7659445088  TIP3      2585            0.0000000000
     25105      2721  TIP3      H2             43.9305330119       23.3511990369       84.4822601226  TIP3      2585            0.0000000000
     25106      2722  TIP3      OH2            39.1001045466       22.4355711674       87.4819155857  TIP3      2586            0.0000000000
     25107      2722  TIP3      H1             39.8187766428       22.6940347695       86.8716790834  TIP3      2586            0.0000000000
     25108      2722  TIP3      H2             38.7691492172       23.3176713207       87.7358635770  TIP3      2586            0.0000000000
     25109      2723  TIP3      OH2            43.3064558792       25.3620785507       86.4557196167  TIP3      2587            0.0000000000
     25110      2723  TIP3      H1             42.5741063137       25.0769779303       85.8826584357  TIP3      2587            0.0000000000
     25111      2723  TIP3      H2             44.0122127228       25.4912617868       85.7993811784  TIP3      2587            0.0000000000
     25112      2724  TIP3      OH2            50.9082832702       23.1986455964       85.8905242349  TIP3      2588            0.0000000000
     25113      2724  TIP3      H1             49.9418621429       23.0302911861       86.0098095972  TIP3      2588            0.0000000000
     25114      2724  TIP3      H2             51.1664908912       23.5242305547       86.7675612346  TIP3      2588            0.0000000000
     25115      2725  TIP3      OH2            47.9252964874       31.4994773327       86.0385767472  TIP3      2589            0.0000000000
     25116      2725  TIP3      H1             47.5086646466       32.3939258865       86.1199208707  TIP3      2589            0.0000000000
     25117      2725  TIP3      H2             48.2764457821       31.3979195317       86.9438849642  TIP3      2589            0.0000000000
     25118      2726  TIP3      OH2            40.3000612846       27.9886552015       85.5510614365  TIP3      2590            0.0000000000
     25119      2726  TIP3      H1             40.8324739527       28.5677559352       86.1537919574  TIP3      2590            0.0000000000
     25120      2726  TIP3      H2             39.4102886131       28.0645166377       85.9625950889  TIP3      2590            0.0000000000
     25121      2727  TIP3      OH2            52.0143149250       31.9769038026       85.9668067197  TIP3      2591            0.0000000000
     25122      2727  TIP3      H1             51.8377220970       32.2654890373       86.8762292804  TIP3      2591            0.0000000000
     25123      2727  TIP3      H2             51.2542243486       31.4007794439       85.8069398793  TIP3      2591            0.0000000000
     25124      2728  TIP3      OH2            56.0576190598       36.2617497695       85.8494525464  TIP3      2592            0.0000000000
     25125      2728  TIP3      H1             56.8844866574       36.7257307568       86.0562884612  TIP3      2592            0.0000000000
     25126      2728  TIP3      H2             55.4026607587       36.7866565321       86.3560558243  TIP3      2592            0.0000000000
     25127      2729  TIP3      OH2            45.8720418086       33.0889742334       84.2461534189  TIP3      2593            0.0000000000
     25128      2729  TIP3      H1             45.5061632206       32.5457459771       83.5372455993  TIP3      2593            0.0000000000
     25129      2729  TIP3      H2             45.4861457490       32.6787404505       85.0510560347  TIP3      2593            0.0000000000
     25130      2730  TIP3      OH2            44.8474226899       32.3069919384       86.8089102808  TIP3      2594            0.0000000000
     25131      2730  TIP3      H1             44.3025689504       31.8485247317       87.4975751066  TIP3      2594            0.0000000000
     25132      2730  TIP3      H2             44.7267104336       33.2330528225       87.1263403407  TIP3      2594            0.0000000000
     25133      2731  TIP3      OH2            41.4709936210       29.5083213710       87.4117954306  TIP3      2595            0.0000000000
     25134      2731  TIP3      H1             40.8780219606       29.0415551249       88.0458500979  TIP3      2595            0.0000000000
     25135      2731  TIP3      H2             41.2280059496       30.4272400301       87.5767998631  TIP3      2595            0.0000000000
     25136      2732  TIP3      OH2            47.0299959519       34.0576512819       86.6298863156  TIP3      2596            0.0000000000
     25137      2732  TIP3      H1             46.1373590752       34.4354401661       86.7107900616  TIP3      2596            0.0000000000
     25138      2732  TIP3      H2             47.5664157177       34.7526026730       87.0434874726  TIP3      2596            0.0000000000
     25139      2733  TIP3      OH2            44.4633600829       34.7273550774       87.8731648275  TIP3      2597            0.0000000000
     25140      2733  TIP3      H1             44.5199647035       35.4909819487       87.2643815539  TIP3      2597            0.0000000000
     25141      2733  TIP3      H2             44.6204554166       35.2286208618       88.6886747202  TIP3      2597            0.0000000000
     25142      2734  TIP3      OH2            43.2285406962       21.4306355178       87.4322611846  TIP3      2598            0.0000000000
     25143      2734  TIP3      H1             43.8673715286       22.0370912579       87.8824814420  TIP3      2598            0.0000000000
     25144      2734  TIP3      H2             43.8297561766       20.8154509544       86.9837280189  TIP3      2598            0.0000000000
     25145      2735  TIP3      OH2            41.8722304999       32.1203774680       85.6833458243  TIP3      2599            0.0000000000
     25146      2735  TIP3      H1             42.3772341491       32.3721169269       86.4741980428  TIP3      2599            0.0000000000
     25147      2735  TIP3      H2             42.4865821939       31.4913267174       85.2669092723  TIP3      2599            0.0000000000
     25148      2736  TIP3      OH2            40.2619404527       25.0576456180       85.5841323218  TIP3      2600            0.0000000000
     25149      2736  TIP3      H1             40.2410104604       25.9577902321       85.9609465459  TIP3      2600            0.0000000000
     25150      2736  TIP3      H2             39.3783998038       24.9575674568       85.2027984496  TIP3      2600            0.0000000000
     25151      2737  TIP3      OH2            48.0737303642       35.3302966262       84.3195291609  TIP3      2601            0.0000000000
     25152      2737  TIP3      H1             47.6624908569       34.4552980486       84.5007551634  TIP3      2601            0.0000000000
     25153      2737  TIP3      H2             48.8890995123       35.1043290735       83.8174722245  TIP3      2601            0.0000000000
     25154      2738  TIP3      OH2            52.5957212072       34.3252648781       84.4043813041  TIP3      2602            0.0000000000
     25155      2738  TIP3      H1             52.6469010410       33.5351557997       84.9826569969  TIP3      2602            0.0000000000
     25156      2738  TIP3      H2             53.4300497539       34.2684998789       83.8877053194  TIP3      2602            0.0000000000
     25157      2739  TIP3      OH2            43.4171225072       29.9077739446       84.2388097645  TIP3      2603            0.0000000000
     25158      2739  TIP3      H1             43.5536249815       29.3311940908       85.0135537483  TIP3      2603            0.0000000000
     25159      2739  TIP3      H2             44.3010971111       29.9332033267       83.8311237624  TIP3      2603            0.0000000000
     25160      2740  TIP3      OH2            49.0794807267       31.7800220639       83.5798103856  TIP3      2604            0.0000000000
     25161      2740  TIP3      H1             48.6322644026       31.7775405056       84.4480029737  TIP3      2604            0.0000000000
     25162      2740  TIP3      H2             49.1412043433       30.8155736135       83.4156753670  TIP3      2604            0.0000000000
     25163      2741  TIP3      OH2            44.8021126298       28.4132952221       86.1770512411  TIP3      2605            0.0000000000
     25164      2741  TIP3      H1             44.1277834209       28.3971630810       86.8796053208  TIP3      2605            0.0000000000
     25165      2741  TIP3      H2             44.7841861080       27.4776767282       85.8817390587  TIP3      2605            0.0000000000
     25166      2742  TIP3      OH2            45.7011090317       26.0320429333       84.9613275583  TIP3      2606            0.0000000000
     25167      2742  TIP3      H1             45.3577117169       26.2021120320       84.0545711986  TIP3      2606            0.0000000000
     25168      2742  TIP3      H2             46.4977688642       25.5169079146       84.7773613769  TIP3      2606            0.0000000000
     25169      2743  TIP3      OH2            55.2128170799       28.9297222757       84.3788767389  TIP3      2607            0.0000000000
     25170      2743  TIP3      H1             55.0852389278       28.5176662193       83.4929131411  TIP3      2607            0.0000000000
     25171      2743  TIP3      H2             55.0612796836       29.8874082347       84.1606499579  TIP3      2607            0.0000000000
     25172      2744  TIP3      OH2            45.6674935520       36.8747451568       86.7374956147  TIP3      2608            0.0000000000
     25173      2744  TIP3      H1             46.6132168107       37.0314363840       86.5328583881  TIP3      2608            0.0000000000
     25174      2744  TIP3      H2             45.2706348411       37.6242919175       86.2624809386  TIP3      2608            0.0000000000
     25175      2745  TIP3      OH2            39.2812681424       31.3179881651       85.9527058803  TIP3      2609            0.0000000000
     25176      2745  TIP3      H1             40.1673595157       31.6982568044       85.7424887267  TIP3      2609            0.0000000000
     25177      2745  TIP3      H2             39.0225846283       30.9583074852       85.0708307300  TIP3      2609            0.0000000000
     25178      2746  TIP3      OH2            56.5436269343       28.0933964281       86.6051894334  TIP3      2610            0.0000000000
     25179      2746  TIP3      H1             56.0259031239       27.6268502815       85.9202245898  TIP3      2610            0.0000000000
     25180      2746  TIP3      H2             56.4494137718       29.0104254982       86.2905880311  TIP3      2610            0.0000000000
     25181      2747  TIP3      OH2            54.7763904336       25.5025307377       85.5069210522  TIP3      2611            0.0000000000
     25182      2747  TIP3      H1             55.1329843205       25.7338658129       84.6266664025  TIP3      2611            0.0000000000
     25183      2747  TIP3      H2             54.4961092176       24.5753241870       85.3606110089  TIP3      2611            0.0000000000
     25184      2748  TIP3      OH2            54.1896811657       22.9072077716       84.6956423107  TIP3      2612            0.0000000000
     25185      2748  TIP3      H1             54.8491310168       22.2803650134       85.0626322914  TIP3      2612            0.0000000000
     25186      2748  TIP3      H2             53.3718792759       22.5161858024       85.0379356831  TIP3      2612            0.0000000000
     25187      2749  TIP3      OH2            55.8817886419       21.1393548121       86.1293808121  TIP3      2613            0.0000000000
     25188      2749  TIP3      H1             56.1490185607       20.6091404253       85.3321148281  TIP3      2613            0.0000000000
     25189      2749  TIP3      H2             56.7636749625       21.3705220979       86.4767519153  TIP3      2613            0.0000000000
     25190      2750  TIP3      OH2            39.7936136460       19.3284860469       86.9555710069  TIP3      2614            0.0000000000
     25191      2750  TIP3      H1             40.1590055320       19.6338177571       86.1144784809  TIP3      2614            0.0000000000
     25192      2750  TIP3      H2             39.4944647851       20.1649753034       87.3415173491  TIP3      2614            0.0000000000
     25193      2751  TIP3      OH2            41.1782781515       21.5213521159       85.7209834886  TIP3      2615            0.0000000000
     25194      2751  TIP3      H1             41.6753091783       20.9807000646       85.0738433953  TIP3      2615            0.0000000000
     25195      2751  TIP3      H2             41.7808746592       21.5257890629       86.5010821991  TIP3      2615            0.0000000000
     25196      2752  TIP3      OH2            48.5272824518       36.8776123726       86.6077642440  TIP3      2616            0.0000000000
     25197      2752  TIP3      H1             49.4929535581       36.8769438540       86.5750425510  TIP3      2616            0.0000000000
     25198      2752  TIP3      H2             48.3289067570       36.2509739772       85.8769979783  TIP3      2616            0.0000000000
     25199      2753  TIP3      OH2            41.1884060069       36.6316168175       85.4757174144  TIP3      2617            0.0000000000
     25200      2753  TIP3      H1             40.7921762651       36.3528677903       86.3207534372  TIP3      2617            0.0000000000
     25201      2753  TIP3      H2             41.8859864731       35.9592022548       85.3485680841  TIP3      2617            0.0000000000
     25202      2754  TIP3      OH2            63.1581142768       22.3799443984       84.7287016635  TIP3      2618            0.0000000000
     25203      2754  TIP3      H1             62.8036853916       22.4821886920       85.6244912214  TIP3      2618            0.0000000000
     25204      2754  TIP3      H2             62.5467525766       22.9386340369       84.2117121967  TIP3      2618            0.0000000000
     25205      2755  TIP3      OH2            57.7580669693       22.8081453129       87.3076064877  TIP3      2619            0.0000000000
     25206      2755  TIP3      H1             58.5670461356       22.8261298172       86.7548307047  TIP3      2619            0.0000000000
     25207      2755  TIP3      H2             57.2423666892       23.5169048316       86.8979494952  TIP3      2619            0.0000000000
     25208      2756  TIP3      OH2            62.6065784401       25.2604810112       86.0035058697  TIP3      2620            0.0000000000
     25209      2756  TIP3      H1             62.0690547567       24.8639704108       85.2948340159  TIP3      2620            0.0000000000
     25210      2756  TIP3      H2             63.0160800922       25.9996611185       85.5296271438  TIP3      2620            0.0000000000
     25211      2757  TIP3      OH2            59.1089014151       27.9636475018       85.7252170867  TIP3      2621            0.0000000000
     25212      2757  TIP3      H1             59.5171174817       28.6990773734       86.2382728623  TIP3      2621            0.0000000000
     25213      2757  TIP3      H2             58.1922857096       27.9877712014       86.0764390842  TIP3      2621            0.0000000000
     25214      2758  TIP3      OH2            64.4218567599       32.9349864438       84.5567909283  TIP3      2622            0.0000000000
     25215      2758  TIP3      H1             64.2656145032       32.3433295990       83.8010857855  TIP3      2622            0.0000000000
     25216      2758  TIP3      H2             63.6890344160       32.7048389180       85.1764119686  TIP3      2622            0.0000000000
     25217      2759  TIP3      OH2            62.9745642148       32.4484081890       86.6959634688  TIP3      2623            0.0000000000
     25218      2759  TIP3      H1             62.6050854263       31.9112540599       87.4301116304  TIP3      2623            0.0000000000
     25219      2759  TIP3      H2             63.2026737374       33.2895476079       87.1643443877  TIP3      2623            0.0000000000
     25220      2760  TIP3      OH2            59.8529595414       30.0130548385       87.2777516524  TIP3      2624            0.0000000000
     25221      2760  TIP3      H1             59.4465747488       29.4763074385       87.9934570252  TIP3      2624            0.0000000000
     25222      2760  TIP3      H2             60.7230890435       30.2057617008       87.6715973728  TIP3      2624            0.0000000000
     25223      2761  TIP3      OH2            63.3844712603       34.8353838242       87.8078600894  TIP3      2625            0.0000000000
     25224      2761  TIP3      H1             63.5236108326       35.5482544258       87.1531722700  TIP3      2625            0.0000000000
     25225      2761  TIP3      H2             63.7943274011       35.2380728009       88.5946530796  TIP3      2625            0.0000000000
     25226      2762  TIP3      OH2            62.0552363811       21.5738111086       87.3989289135  TIP3      2626            0.0000000000
     25227      2762  TIP3      H1             62.6412744429       22.2142561154       87.8660586378  TIP3      2626            0.0000000000
     25228      2762  TIP3      H2             62.6903207364       20.9123041015       87.0818471597  TIP3      2626            0.0000000000
     25229      2763  TIP3      OH2            60.4725960695       32.4843930211       85.4735665623  TIP3      2627            0.0000000000
     25230      2763  TIP3      H1             61.2984246632       32.5632803545       85.9845508713  TIP3      2627            0.0000000000
     25231      2763  TIP3      H2             60.6103684564       31.6232036839       85.0329875070  TIP3      2627            0.0000000000
     25232      2764  TIP3      OH2            59.2724475278       24.9805473065       85.2754672325  TIP3      2628            0.0000000000
     25233      2764  TIP3      H1             59.5245632292       25.7475223160       85.8255237313  TIP3      2628            0.0000000000
     25234      2764  TIP3      H2             58.3381772331       25.1511304733       85.0946284879  TIP3      2628            0.0000000000
     25235      2765  TIP3      OH2            61.6531925877       30.2672728415       84.3243906763  TIP3      2629            0.0000000000
     25236      2765  TIP3      H1             61.9309366983       29.9170997803       85.1889134774  TIP3      2629            0.0000000000
     25237      2765  TIP3      H2             62.5106769587       30.3032807895       83.8649960086  TIP3      2629            0.0000000000
     25238      2766  TIP3      OH2            63.5219207245       28.9417522352       86.6951833229  TIP3      2630            0.0000000000
     25239      2766  TIP3      H1             63.6630208516       28.2015341888       87.3161395745  TIP3      2630            0.0000000000
     25240      2766  TIP3      H2             63.8924020236       28.5367956589       85.8794091397  TIP3      2630            0.0000000000
     25241      2767  TIP3      OH2            64.5384817069       27.1889770695       84.8101900438  TIP3      2631            0.0000000000
     25242      2767  TIP3      H1             64.2585153410       27.2128709279       83.8729904034  TIP3      2631            0.0000000000
     25243      2767  TIP3      H2             65.2876127787       26.5811522209       84.7198085923  TIP3      2631            0.0000000000
     25244      2768  TIP3      OH2            64.4870977409       36.9193977270       86.0203509486  TIP3      2632            0.0000000000
     25245      2768  TIP3      H1             65.2953334648       37.0045836374       86.5404515715  TIP3      2632            0.0000000000
     25246      2768  TIP3      H2             64.7058981828       37.5561892333       85.3115509371  TIP3      2632            0.0000000000
     25247      2769  TIP3      OH2            57.7933887003       31.8105033452       86.0281321992  TIP3      2633            0.0000000000
     25248      2769  TIP3      H1             58.7311471044       32.0873842090       85.9100795356  TIP3      2633            0.0000000000
     25249      2769  TIP3      H2             57.6265230184       31.4062019305       85.1609724282  TIP3      2633            0.0000000000
     25250      2770  TIP3      OH2            58.4016345022       19.3220080537       86.9482104186  TIP3      2634            0.0000000000
     25251      2770  TIP3      H1             58.9873445949       18.6216691673       87.2695398458  TIP3      2634            0.0000000000
     25252      2770  TIP3      H2             58.5458434197       20.0445927107       87.5745936392  TIP3      2634            0.0000000000
     25253      2771  TIP3      OH2            60.0525364060       21.7462158676       85.6782958342  TIP3      2635            0.0000000000
     25254      2771  TIP3      H1             60.4719065599       21.0467327985       85.1355951427  TIP3      2635            0.0000000000
     25255      2771  TIP3      H2             60.6668217416       21.7768381327       86.4420333076  TIP3      2635            0.0000000000
     25256      2772  TIP3      OH2            59.4944629819       36.4494204563       84.4812486667  TIP3      2636            0.0000000000
     25257      2772  TIP3      H1             59.1928705951       36.4453374421       85.4070375193  TIP3      2636            0.0000000000
     25258      2772  TIP3      H2             60.2819195945       35.8458240799       84.4687668180  TIP3      2636            0.0000000000
     25259      2773  TIP3      OH2            10.5599214486       45.8520406375       85.1676495560  TIP3      2637            0.0000000000
     25260      2773  TIP3      H1             11.2653317643       46.0756580394       85.8016268147  TIP3      2637            0.0000000000
     25261      2773  TIP3      H2             10.8442801486       44.9610023325       84.8919260915  TIP3      2637            0.0000000000
     25262      2774  TIP3      OH2            12.9101107578       46.4670953142       86.9920810366  TIP3      2638            0.0000000000
     25263      2774  TIP3      H1             13.4501948687       46.1916309000       87.7597082983  TIP3      2638            0.0000000000
     25264      2774  TIP3      H2             13.6016520640       46.6548176917       86.3172648534  TIP3      2638            0.0000000000
     25265      2775  TIP3      OH2            16.7811611548       37.7745355564       87.2179528311  TIP3      2639            0.0000000000
     25266      2775  TIP3      H1             15.9762866710       37.9447753134       87.7157822170  TIP3      2639            0.0000000000
     25267      2775  TIP3      H2             17.0745755140       38.6461986304       86.8882968680  TIP3      2639            0.0000000000
     25268      2776  TIP3      OH2            18.4968499394       52.2204036381       85.0405850030  TIP3      2640            0.0000000000
     25269      2776  TIP3      H1             18.5084240839       53.1734060574       85.2728523789  TIP3      2640            0.0000000000
     25270      2776  TIP3      H2             19.1270082860       51.8389039567       85.6817892796  TIP3      2640            0.0000000000
     25271      2777  TIP3      OH2            13.5387973435       55.0035731422       85.9620647358  TIP3      2641            0.0000000000
     25272      2777  TIP3      H1             13.9206882452       54.2708768197       85.4187316834  TIP3      2641            0.0000000000
     25273      2777  TIP3      H2             13.9316433307       54.7949020977       86.8237926560  TIP3      2641            0.0000000000
     25274      2778  TIP3      OH2            14.9716995156       47.1951787481       85.3142990809  TIP3      2642            0.0000000000
     25275      2778  TIP3      H1             14.6774240009       47.0942319025       84.3780498782  TIP3      2642            0.0000000000
     25276      2778  TIP3      H2             15.8513621730       47.6033337655       85.1757494231  TIP3      2642            0.0000000000
     25277      2779  TIP3      OH2            10.4744271803       41.1051146045       85.8446601648  TIP3      2643            0.0000000000
     25278      2779  TIP3      H1              9.8418599306       41.5711861655       86.4033444830  TIP3      2643            0.0000000000
     25279      2779  TIP3      H2              9.8980919936       40.5258828477       85.3271625465  TIP3      2643            0.0000000000
     25280      2780  TIP3      OH2             6.7561547384       41.3234653080       84.6085502370  TIP3      2644            0.0000000000
     25281      2780  TIP3      H1              6.2501297572       41.1389849142       85.4272617254  TIP3      2644            0.0000000000
     25282      2780  TIP3      H2              6.1335703403       41.8839526146       84.0927467623  TIP3      2644            0.0000000000
     25283      2781  TIP3      OH2             1.6458436387       41.5096824476       87.7272778419  TIP3      2645            0.0000000000
     25284      2781  TIP3      H1              2.0134491069       42.0033843741       86.9755234029  TIP3      2645            0.0000000000
     25285      2781  TIP3      H2              0.7361211531       41.8242119742       87.8096919698  TIP3      2645            0.0000000000
     25286      2782  TIP3      OH2             6.1469132328       44.2599918603       85.9573809715  TIP3      2646            0.0000000000
     25287      2782  TIP3      H1              5.7409172644       43.8144268579       85.1890268038  TIP3      2646            0.0000000000
     25288      2782  TIP3      H2              6.7741523153       44.8501403817       85.4845111518  TIP3      2646            0.0000000000
     25289      2783  TIP3      OH2            12.9455889293       42.0493596813       85.6078349303  TIP3      2647            0.0000000000
     25290      2783  TIP3      H1             11.9954540362       41.8346386188       85.7897321370  TIP3      2647            0.0000000000
     25291      2783  TIP3      H2             13.2904662008       42.2097892159       86.4973918212  TIP3      2647            0.0000000000
     25292      2784  TIP3      OH2            10.4362785101       50.4307235218       85.9158705743  TIP3      2648            0.0000000000
     25293      2784  TIP3      H1             10.1963791586       51.3415824069       86.2050638356  TIP3      2648            0.0000000000
     25294      2784  TIP3      H2             10.5369039239       50.0038570989       86.7712204743  TIP3      2648            0.0000000000
     25295      2785  TIP3      OH2             2.5386460640       47.0768623128       85.6654433606  TIP3      2649            0.0000000000
     25296      2785  TIP3      H1              3.1470632469       47.2560175776       86.4151291319  TIP3      2649            0.0000000000
     25297      2785  TIP3      H2              1.8902863276       47.7849999812       85.8419928522  TIP3      2649            0.0000000000
     25298      2786  TIP3      OH2            14.4285681399       50.8806056124       86.0255978225  TIP3      2650            0.0000000000
     25299      2786  TIP3      H1             14.3546301595       51.1542818593       86.9520847267  TIP3      2650            0.0000000000
     25300      2786  TIP3      H2             13.5725814391       50.4518626219       85.8690744606  TIP3      2650            0.0000000000
     25301      2787  TIP3      OH2            18.5200118852       54.8222428328       85.7059678713  TIP3      2651            0.0000000000
     25302      2787  TIP3      H1             19.2672975430       55.4114167296       85.9138305067  TIP3      2651            0.0000000000
     25303      2787  TIP3      H2             17.8107354264       55.1880357622       86.2488743931  TIP3      2651            0.0000000000
     25304      2788  TIP3      OH2             8.2786214046       52.2316774752       84.2941783046  TIP3      2652            0.0000000000
     25305      2788  TIP3      H1              8.0398805700       51.5151567515       83.6842191384  TIP3      2652            0.0000000000
     25306      2788  TIP3      H2              8.0722313295       51.8135226019       85.1579853100  TIP3      2652            0.0000000000
     25307      2789  TIP3      OH2             7.2542857171       51.2499699351       86.7696761061  TIP3      2653            0.0000000000
     25308      2789  TIP3      H1              6.7296372399       50.6333280140       87.3099684724  TIP3      2653            0.0000000000
     25309      2789  TIP3      H2              7.2433762226       52.1008017002       87.2652112945  TIP3      2653            0.0000000000
     25310      2790  TIP3      OH2             3.3901426922       48.2084852763       87.8608865929  TIP3      2654            0.0000000000
     25311      2790  TIP3      H1              2.7986891988       48.9802761410       87.9362121031  TIP3      2654            0.0000000000
     25312      2790  TIP3      H2              4.2538241294       48.6501691244       87.7453639740  TIP3      2654            0.0000000000
     25313      2791  TIP3      OH2             9.7021021671       52.8955964676       86.7619804933  TIP3      2655            0.0000000000
     25314      2791  TIP3      H1              8.8289588671       53.2347194649       87.0449813845  TIP3      2655            0.0000000000
     25315      2791  TIP3      H2             10.2794601345       53.6231076301       87.0446396657  TIP3      2655            0.0000000000
     25316      2792  TIP3      OH2             7.3281881618       53.6587335281       87.9219977522  TIP3      2656            0.0000000000
     25317      2792  TIP3      H1              7.0717815822       54.2827586763       87.2068719518  TIP3      2656            0.0000000000
     25318      2792  TIP3      H2              7.3039060096       54.3071411474       88.6512335487  TIP3      2656            0.0000000000
     25319      2793  TIP3      OH2             5.7156605641       40.5555338014       87.0064857020  TIP3      2657            0.0000000000
     25320      2793  TIP3      H1              5.8796001861       41.4165240402       87.4324084387  TIP3      2657            0.0000000000
     25321      2793  TIP3      H2              6.4680173726       40.0401628804       87.3426315754  TIP3      2657            0.0000000000
     25322      2794  TIP3      OH2             4.1395687349       50.9093837584       85.7021494000  TIP3      2658            0.0000000000
     25323      2794  TIP3      H1              4.7338562059       51.3267075040       86.3426973895  TIP3      2658            0.0000000000
     25324      2794  TIP3      H2              4.7837097965       50.3524910741       85.2107601131  TIP3      2658            0.0000000000
     25325      2795  TIP3      OH2             2.1430247178       44.0319405699       85.1329064184  TIP3      2659            0.0000000000
     25326      2795  TIP3      H1              2.4201960410       44.8111134662       85.6442063038  TIP3      2659            0.0000000000
     25327      2795  TIP3      H2              1.1997815350       43.9723260686       85.3099034734  TIP3      2659            0.0000000000
     25328      2796  TIP3      OH2            10.5155407467       54.0927266848       84.3107747431  TIP3      2660            0.0000000000
     25329      2796  TIP3      H1              9.9520746783       53.3350231018       84.5852158237  TIP3      2660            0.0000000000
     25330      2796  TIP3      H2             11.2614862653       53.6497237056       83.8584750070  TIP3      2660            0.0000000000
     25331      2797  TIP3      OH2            14.7594758012       53.1215442712       84.3971104497  TIP3      2661            0.0000000000
     25332      2797  TIP3      H1             14.8959385199       52.3626885386       85.0019752274  TIP3      2661            0.0000000000
     25333      2797  TIP3      H2             15.5736147094       53.1178379724       83.8405655885  TIP3      2661            0.0000000000
     25334      2798  TIP3      OH2             5.7728829996       49.2167963375       84.1960608794  TIP3      2662            0.0000000000
     25335      2798  TIP3      H1              6.1120257743       48.7854861157       85.0084355178  TIP3      2662            0.0000000000
     25336      2798  TIP3      H2              6.5307501446       49.0291706318       83.6030645512  TIP3      2662            0.0000000000
     25337      2799  TIP3      OH2            11.1036726245       50.5746989820       83.3368939618  TIP3      2663            0.0000000000
     25338      2799  TIP3      H1             10.6891728826       50.5334878474       84.2279464700  TIP3      2663            0.0000000000
     25339      2799  TIP3      H2             11.3465247521       49.6182705893       83.2983020152  TIP3      2663            0.0000000000
     25340      2800  TIP3      OH2             6.7738423678       47.6916556888       86.1764482830  TIP3      2664            0.0000000000
     25341      2800  TIP3      H1              6.5699135577       46.7726463471       86.4385325543  TIP3      2664            0.0000000000
     25342      2800  TIP3      H2              7.5935814710       47.5452328470       85.6684470506  TIP3      2664            0.0000000000
     25343      2801  TIP3      OH2             7.8616580630       45.7301126936       84.4975247594  TIP3      2665            0.0000000000
     25344      2801  TIP3      H1              7.6958930167       46.0185273009       83.5793667679  TIP3      2665            0.0000000000
     25345      2801  TIP3      H2              8.8435912328       45.7622858736       84.5615867845  TIP3      2665            0.0000000000
     25346      2802  TIP3      OH2            17.4407470580       47.7756973726       84.3396455706  TIP3      2666            0.0000000000
     25347      2802  TIP3      H1             17.2649714175       47.4006411150       83.4505892838  TIP3      2666            0.0000000000
     25348      2802  TIP3      H2             17.3471129446       48.7510984834       84.1731833353  TIP3      2666            0.0000000000
     25349      2803  TIP3      OH2             8.1015836192       55.8996771955       86.5857093022  TIP3      2667            0.0000000000
     25350      2803  TIP3      H1              9.0709376078       55.8700961462       86.4215458482  TIP3      2667            0.0000000000
     25351      2803  TIP3      H2              7.8808175446       56.6712581770       86.0397332789  TIP3      2667            0.0000000000
     25352      2804  TIP3      OH2             1.4144633304       50.3804595257       85.9501277518  TIP3      2668            0.0000000000
     25353      2804  TIP3      H1              2.3190384687       50.7143868420       85.8088937565  TIP3      2668            0.0000000000
     25354      2804  TIP3      H2              1.1510194330       50.1766705836       85.0423136313  TIP3      2668            0.0000000000
     25355      2805  TIP3      OH2            18.8949872864       46.9209472604       86.6309062451  TIP3      2669            0.0000000000
     25356      2805  TIP3      H1             18.3997503478       46.8886820436       85.7879861361  TIP3      2669            0.0000000000
     25357      2805  TIP3      H2             18.9159944612       47.8771382420       86.7895423527  TIP3      2669            0.0000000000
     25358      2806  TIP3      OH2            17.0436222480       43.8243239221       85.2684118266  TIP3      2670            0.0000000000
     25359      2806  TIP3      H1             17.2837948475       44.2077942724       84.4097580942  TIP3      2670            0.0000000000
     25360      2806  TIP3      H2             16.4389444163       43.1042399025       85.0319422866  TIP3      2670            0.0000000000
     25361      2807  TIP3      OH2            16.3636142700       40.8976319477       84.2476913527  TIP3      2671            0.0000000000
     25362      2807  TIP3      H1             17.0261446142       40.5500528954       84.8897380584  TIP3      2671            0.0000000000
     25363      2807  TIP3      H2             15.6027860167       41.0425113674       84.8285145330  TIP3      2671            0.0000000000
     25364      2808  TIP3      OH2            18.2043773338       39.6351079187       85.9550854085  TIP3      2672            0.0000000000
     25365      2808  TIP3      H1             18.6415473311       39.0922229507       85.2534869885  TIP3      2672            0.0000000000
     25366      2808  TIP3      H2             18.9845163496       39.9411749564       86.4565945786  TIP3      2672            0.0000000000
     25367      2809  TIP3      OH2             1.7916027182       38.4313762500       86.8940340450  TIP3      2673            0.0000000000
     25368      2809  TIP3      H1              2.3545771771       38.9953473795       86.3382942549  TIP3      2673            0.0000000000
     25369      2809  TIP3      H2              1.1003602455       39.0746558769       87.1086325660  TIP3      2673            0.0000000000
     25370      2810  TIP3      OH2             3.3652912609       40.2370575698       85.5809673987  TIP3      2674            0.0000000000
     25371      2810  TIP3      H1              3.9846393300       39.7241470552       85.0248765258  TIP3      2674            0.0000000000
     25372      2810  TIP3      H2              3.9464029668       40.4373918434       86.3334173226  TIP3      2674            0.0000000000
     25373      2811  TIP3      OH2            10.9055965927       55.7203661859       86.4306350860  TIP3      2675            0.0000000000
     25374      2811  TIP3      H1             11.8786772395       55.7566016924       86.4369839107  TIP3      2675            0.0000000000
     25375      2811  TIP3      H2             10.7706322930       55.0652634917       85.7093799268  TIP3      2675            0.0000000000
     25376      2812  TIP3      OH2             3.0979565940       55.3278432901       85.3248060915  TIP3      2676            0.0000000000
     25377      2812  TIP3      H1              2.5278139013       55.3008662726       86.1086054348  TIP3      2676            0.0000000000
     25378      2812  TIP3      H2              3.7126810126       54.5921905815       85.4919365281  TIP3      2676            0.0000000000
     25379      2813  TIP3      OH2            29.5437563852       45.6730565695       85.1548823372  TIP3      2677            0.0000000000
     25380      2813  TIP3      H1             30.0147328252       45.9628640859       85.9612287617  TIP3      2677            0.0000000000
     25381      2813  TIP3      H2             30.1270293411       44.9177979698       84.9388079335  TIP3      2677            0.0000000000
     25382      2814  TIP3      OH2            31.7140376439       46.3603448644       86.8462204426  TIP3      2678            0.0000000000
     25383      2814  TIP3      H1             31.8649212759       46.7446295878       87.7342425909  TIP3      2678            0.0000000000
     25384      2814  TIP3      H2             32.3907253676       46.8627811561       86.3310304684  TIP3      2678            0.0000000000
     25385      2815  TIP3      OH2            35.4996556251       38.2692833241       88.0697119397  TIP3      2679            0.0000000000
     25386      2815  TIP3      H1             34.8749001024       37.9848385975       87.3858066906  TIP3      2679            0.0000000000
     25387      2815  TIP3      H2             36.2776088264       38.5224362992       87.5249223326  TIP3      2679            0.0000000000
     25388      2816  TIP3      OH2            37.0896579751       52.5502518163       84.9674141733  TIP3      2680            0.0000000000
     25389      2816  TIP3      H1             37.1293098726       53.4968349177       85.2262961760  TIP3      2680            0.0000000000
     25390      2816  TIP3      H2             37.5806149926       52.1635084786       85.7185868767  TIP3      2680            0.0000000000
     25391      2817  TIP3      OH2            32.5240600908       54.7770659670       86.1185672204  TIP3      2681            0.0000000000
     25392      2817  TIP3      H1             32.8070845899       54.1522481233       85.4143377080  TIP3      2681            0.0000000000
     25393      2817  TIP3      H2             33.1388300034       54.5366630428       86.8346971361  TIP3      2681            0.0000000000
     25394      2818  TIP3      OH2            33.5435647189       47.8711147349       85.6226541611  TIP3      2682            0.0000000000
     25395      2818  TIP3      H1             33.5606769569       47.2891175305       84.8386995546  TIP3      2682            0.0000000000
     25396      2818  TIP3      H2             34.3694351475       48.3593082955       85.4625996754  TIP3      2682            0.0000000000
     25397      2819  TIP3      OH2            29.1963811699       41.0297748698       85.7092795343  TIP3      2683            0.0000000000
     25398      2819  TIP3      H1             28.7479968690       41.2549099082       86.5326499252  TIP3      2683            0.0000000000
     25399      2819  TIP3      H2             28.6196867210       40.3504115065       85.3321661902  TIP3      2683            0.0000000000
     25400      2820  TIP3      OH2            25.4277465748       41.4795686551       84.7862219554  TIP3      2684            0.0000000000
     25401      2820  TIP3      H1             24.9961332609       41.6356032337       85.6396845350  TIP3      2684            0.0000000000
     25402      2820  TIP3      H2             25.0160767457       42.2015153066       84.2513027989  TIP3      2684            0.0000000000
     25403      2821  TIP3      OH2            19.8932111352       41.5552156341       87.1097344736  TIP3      2685            0.0000000000
     25404      2821  TIP3      H1             20.7277888562       41.8026025429       86.6613200398  TIP3      2685            0.0000000000
     25405      2821  TIP3      H2             19.3177791967       42.2892006064       86.8432758493  TIP3      2685            0.0000000000
     25406      2822  TIP3      OH2            24.9811280993       44.0788649239       86.0085983251  TIP3      2686            0.0000000000
     25407      2822  TIP3      H1             24.2936953309       43.7514796297       85.4079368976  TIP3      2686            0.0000000000
     25408      2822  TIP3      H2             25.5289009362       44.5998824666       85.3939610124  TIP3      2686            0.0000000000
     25409      2823  TIP3      OH2            31.3491927855       42.3810536352       86.7034427779  TIP3      2687            0.0000000000
     25410      2823  TIP3      H1             30.6293773641       41.9385663786       86.2097717399  TIP3      2687            0.0000000000
     25411      2823  TIP3      H2             31.5974412205       43.0791301185       86.0783201432  TIP3      2687            0.0000000000
     25412      2824  TIP3      OH2            29.1237255094       50.1473904947       85.7969248881  TIP3      2688            0.0000000000
     25413      2824  TIP3      H1             29.0865696289       51.0640228600       86.1554487573  TIP3      2688            0.0000000000
     25414      2824  TIP3      H2             28.9905384132       49.6579947951       86.6169203025  TIP3      2688            0.0000000000
     25415      2825  TIP3      OH2            21.5429786839       46.7496212124       85.7180545094  TIP3      2689            0.0000000000
     25416      2825  TIP3      H1             22.0811133516       47.3440031687       86.2971592014  TIP3      2689            0.0000000000
     25417      2825  TIP3      H2             20.6462662759       46.8688530691       86.0983143205  TIP3      2689            0.0000000000
     25418      2826  TIP3      OH2            33.1743831193       50.7767675240       86.0673487943  TIP3      2690            0.0000000000
     25419      2826  TIP3      H1             33.0298993538       50.8154583136       87.0252358873  TIP3      2690            0.0000000000
     25420      2826  TIP3      H2             32.4534681415       50.1910522475       85.7971655068  TIP3      2690            0.0000000000
     25421      2827  TIP3      OH2            37.3132453531       55.0025551999       85.8652806947  TIP3      2691            0.0000000000
     25422      2827  TIP3      H1             38.1362965324       55.4895408077       86.0042759057  TIP3      2691            0.0000000000
     25423      2827  TIP3      H2             36.6721514852       55.5689652207       86.3457249583  TIP3      2691            0.0000000000
     25424      2828  TIP3      OH2            27.0782424892       52.1174817952       84.2754403027  TIP3      2692            0.0000000000
     25425      2828  TIP3      H1             26.9575734813       51.3780404681       83.6606120362  TIP3      2692            0.0000000000
     25426      2828  TIP3      H2             26.6932792223       51.7153850113       85.0923100795  TIP3      2692            0.0000000000
     25427      2829  TIP3      OH2            26.0396955287       51.0924259752       86.5650277120  TIP3      2693            0.0000000000
     25428      2829  TIP3      H1             25.5897561379       50.4915836345       87.1880489646  TIP3      2693            0.0000000000
     25429      2829  TIP3      H2             26.0520413025       51.9219115834       87.0937787007  TIP3      2693            0.0000000000
     25430      2830  TIP3      OH2            22.5105384202       48.4546704234       87.4320756685  TIP3      2694            0.0000000000
     25431      2830  TIP3      H1             21.9232830620       48.0792939276       88.1192260283  TIP3      2694            0.0000000000
     25432      2830  TIP3      H2             23.2543721423       48.7906036631       87.9477332659  TIP3      2694            0.0000000000
     25433      2831  TIP3      OH2            28.7425312568       52.5495287988       86.9463995439  TIP3      2695            0.0000000000
     25434      2831  TIP3      H1             27.7895977093       52.7423556351       87.0125511751  TIP3      2695            0.0000000000
     25435      2831  TIP3      H2             29.0953466892       53.4368028218       87.1087297082  TIP3      2695            0.0000000000
     25436      2832  TIP3      OH2            26.2713668623       53.4792069697       87.6561333440  TIP3      2696            0.0000000000
     25437      2832  TIP3      H1             26.2311736377       54.1040248868       86.8934725524  TIP3      2696            0.0000000000
     25438      2832  TIP3      H2             26.1911253489       54.1259527183       88.3793485268  TIP3      2696            0.0000000000
     25439      2833  TIP3      OH2            24.2248986405       40.3405551146       87.1643076859  TIP3      2697            0.0000000000
     25440      2833  TIP3      H1             24.8580129126       40.9524148719       87.6092350963  TIP3      2697            0.0000000000
     25441      2833  TIP3      H2             24.8211285710       39.7865527047       86.6338699980  TIP3      2697            0.0000000000
     25442      2834  TIP3      OH2            23.0802339199       51.1071010142       85.6462895127  TIP3      2698            0.0000000000
     25443      2834  TIP3      H1             23.6793267685       51.2279921100       86.3931266754  TIP3      2698            0.0000000000
     25444      2834  TIP3      H2             23.5182045244       50.3362555418       85.2275609737  TIP3      2698            0.0000000000
     25445      2835  TIP3      OH2            21.3322766393       43.7941745881       85.3583498635  TIP3      2699            0.0000000000
     25446      2835  TIP3      H1             21.4540020839       44.7182752445       85.6464997333  TIP3      2699            0.0000000000
     25447      2835  TIP3      H2             20.4093682681       43.7483706509       85.0875312303  TIP3      2699            0.0000000000
     25448      2836  TIP3      OH2            29.3193133442       54.0604716083       84.4394397474  TIP3      2700            0.0000000000
     25449      2836  TIP3      H1             28.7679269762       53.2501954821       84.5257921200  TIP3      2700            0.0000000000
     25450      2836  TIP3      H2             30.0351424735       53.7437956949       83.8420126609  TIP3      2700            0.0000000000
     25451      2837  TIP3      OH2            33.8550974341       53.3172290884       84.2972691846  TIP3      2701            0.0000000000
     25452      2837  TIP3      H1             34.0526121821       52.7811507557       85.0864486609  TIP3      2701            0.0000000000
     25453      2837  TIP3      H2             34.6436813798       53.1331390264       83.7354219815  TIP3      2701            0.0000000000
     25454      2838  TIP3      OH2            24.7546278325       49.2372826254       84.3911665975  TIP3      2702            0.0000000000
     25455      2838  TIP3      H1             25.1917883886       48.9507471315       85.2133792046  TIP3      2702            0.0000000000
     25456      2838  TIP3      H2             25.5121156881       49.1268702603       83.7720019796  TIP3      2702            0.0000000000
     25457      2839  TIP3      OH2            29.8115597255       50.5742269872       83.2244550756  TIP3      2703            0.0000000000
     25458      2839  TIP3      H1             29.2893474705       50.5168180509       84.0538959616  TIP3      2703            0.0000000000
     25459      2839  TIP3      H2             30.0823918763       49.6361331531       83.1842669835  TIP3      2703            0.0000000000
     25460      2840  TIP3      OH2            25.8425820435       47.3237045776       86.3622672337  TIP3      2704            0.0000000000
     25461      2840  TIP3      H1             25.5424956196       46.7220455329       87.0632519006  TIP3      2704            0.0000000000
     25462      2840  TIP3      H2             26.2117987926       46.7027554484       85.6950896771  TIP3      2704            0.0000000000
     25463      2841  TIP3      OH2            26.8807816565       45.5071624816       84.5404259503  TIP3      2705            0.0000000000
     25464      2841  TIP3      H1             26.8484245387       45.8234064162       83.6135031810  TIP3      2705            0.0000000000
     25465      2841  TIP3      H2             27.8495009739       45.5169510274       84.6871776513  TIP3      2705            0.0000000000
     25466      2842  TIP3      OH2            36.2557863694       47.8519754934       84.4103350561  TIP3      2706            0.0000000000
     25467      2842  TIP3      H1             36.0040430128       47.5499152181       83.5042607285  TIP3      2706            0.0000000000
     25468      2842  TIP3      H2             36.1745245962       48.8344466975       84.3291957798  TIP3      2706            0.0000000000
     25469      2843  TIP3      OH2            26.9676925538       55.8352780155       86.7000870212  TIP3      2707            0.0000000000
     25470      2843  TIP3      H1             27.9357050649       55.8272481726       86.5233901253  TIP3      2707            0.0000000000
     25471      2843  TIP3      H2             26.7168779304       56.6339787625       86.1955394039  TIP3      2707            0.0000000000
     25472      2844  TIP3      OH2            20.1486657605       50.2909257360       85.8652696304  TIP3      2708            0.0000000000
     25473      2844  TIP3      H1             21.0995461810       50.4934461777       85.7559693421  TIP3      2708            0.0000000000
     25474      2844  TIP3      H2             20.0162578556       49.7388477792       85.0646571990  TIP3      2708            0.0000000000
     25475      2845  TIP3      OH2            37.9370453908       46.8172145621       86.5211721175  TIP3      2709            0.0000000000
     25476      2845  TIP3      H1             37.2388715416       46.8017546413       85.8394486324  TIP3      2709            0.0000000000
     25477      2845  TIP3      H2             37.9617411647       47.7531796624       86.7644238720  TIP3      2709            0.0000000000
     25478      2846  TIP3      OH2            35.4062199097       44.5589636004       85.7825095568  TIP3      2710            0.0000000000
     25479      2846  TIP3      H1             35.7720032261       44.7524596458       84.9072515869  TIP3      2710            0.0000000000
     25480      2846  TIP3      H2             35.2214062054       43.5994768057       85.6935858301  TIP3      2710            0.0000000000
     25481      2847  TIP3      OH2            34.8832232387       42.0141297233       84.5849794300  TIP3      2711            0.0000000000
     25482      2847  TIP3      H1             35.3500353821       41.1963062088       84.8261200747  TIP3      2711            0.0000000000
     25483      2847  TIP3      H2             34.2156176660       41.6500194097       83.9801395653  TIP3      2711            0.0000000000
     25484      2848  TIP3      OH2            37.2460563440       39.7677250676       86.4740678527  TIP3      2712            0.0000000000
     25485      2848  TIP3      H1             36.4632513185       39.6175968561       85.8936951744  TIP3      2712            0.0000000000
     25486      2848  TIP3      H2             37.9327860133       39.8027329742       85.7671211660  TIP3      2712            0.0000000000
     25487      2849  TIP3      OH2            20.7808904370       38.0034983700       86.5102405742  TIP3      2713            0.0000000000
     25488      2849  TIP3      H1             21.2092278354       38.7321343934       86.0239854060  TIP3      2713            0.0000000000
     25489      2849  TIP3      H2             20.7288060407       38.3588631460       87.4105795709  TIP3      2713            0.0000000000
     25490      2850  TIP3      OH2            22.1518579939       40.3192561105       85.5762985990  TIP3      2714            0.0000000000
     25491      2850  TIP3      H1             22.6942048588       39.7512334816       84.9952604840  TIP3      2714            0.0000000000
     25492      2850  TIP3      H2             22.7658136810       40.4540317698       86.3394793967  TIP3      2714            0.0000000000
     25493      2851  TIP3      OH2            29.7290582301       55.6603009475       86.5939437762  TIP3      2715            0.0000000000
     25494      2851  TIP3      H1             30.6878113592       55.6858622234       86.7605208865  TIP3      2715            0.0000000000
     25495      2851  TIP3      H2             29.6728468515       55.0437493085       85.8242312090  TIP3      2715            0.0000000000
     25496      2852  TIP3      OH2            21.7306683075       54.8876882574       84.7052576808  TIP3      2716            0.0000000000
     25497      2852  TIP3      H1             21.5008727790       55.1320754841       85.6214762069  TIP3      2716            0.0000000000
     25498      2852  TIP3      H2             22.4919178982       54.2939187602       84.8106806110  TIP3      2716            0.0000000000
     25499      2853  TIP3      OH2            48.4094255970       45.8442697832       85.2759934384  TIP3      2717            0.0000000000
     25500      2853  TIP3      H1             49.0789012087       46.1226293574       85.9297126964  TIP3      2717            0.0000000000
     25501      2853  TIP3      H2             48.4751557765       44.8816298710       85.3590598257  TIP3      2717            0.0000000000
     25502      2854  TIP3      OH2            50.8197529940       46.1539017800       87.0408936903  TIP3      2718            0.0000000000
     25503      2854  TIP3      H1             51.2539949010       46.2125516844       87.9243831226  TIP3      2718            0.0000000000
     25504      2854  TIP3      H2             51.5467577730       46.4529006975       86.4434606716  TIP3      2718            0.0000000000
     25505      2855  TIP3      OH2            54.3721591038       38.0962119578       87.2070151035  TIP3      2719            0.0000000000
     25506      2855  TIP3      H1             53.6063679271       38.5619758193       87.5528431052  TIP3      2719            0.0000000000
     25507      2855  TIP3      H2             54.9507150713       38.8155352710       86.8724226389  TIP3      2719            0.0000000000
     25508      2856  TIP3      OH2            55.7711284214       52.5456163850       84.9396251694  TIP3      2720            0.0000000000
     25509      2856  TIP3      H1             55.8022218704       53.5024569812       85.1377674259  TIP3      2720            0.0000000000
     25510      2856  TIP3      H2             56.2530909334       52.2078286036       85.7139422689  TIP3      2720            0.0000000000
     25511      2857  TIP3      OH2            51.5107094082       54.6750170082       86.2133269453  TIP3      2721            0.0000000000
     25512      2857  TIP3      H1             51.8125213682       54.0664816265       85.4977082952  TIP3      2721            0.0000000000
     25513      2857  TIP3      H2             51.9478846359       54.2544427271       86.9790183874  TIP3      2721            0.0000000000
     25514      2858  TIP3      OH2            52.7539847837       47.4177184740       85.6052942090  TIP3      2722            0.0000000000
     25515      2858  TIP3      H1             52.4007625842       47.2871715322       84.6980713755  TIP3      2722            0.0000000000
     25516      2858  TIP3      H2             53.6316843846       47.7893087124       85.3979967082  TIP3      2722            0.0000000000
     25517      2859  TIP3      OH2            47.9751874825       41.0811312807       85.8892223396  TIP3      2723            0.0000000000
     25518      2859  TIP3      H1             47.3325670499       41.1369738003       86.6045656239  TIP3      2723            0.0000000000
     25519      2859  TIP3      H2             47.4329178752       40.7489621847       85.1633332719  TIP3      2723            0.0000000000
     25520      2860  TIP3      OH2            44.5269710082       41.6550058292       84.7288778906  TIP3      2724            0.0000000000
     25521      2860  TIP3      H1             43.9535863286       41.3826187469       85.4793671221  TIP3      2724            0.0000000000
     25522      2860  TIP3      H2             43.9420122949       42.2826833418       84.2325587402  TIP3      2724            0.0000000000
     25523      2861  TIP3      OH2            39.3380234876       42.0754875932       87.4984992216  TIP3      2725            0.0000000000
     25524      2861  TIP3      H1             40.0119618498       42.3752621268       86.8612330442  TIP3      2725            0.0000000000
     25525      2861  TIP3      H2             38.5432865516       42.0521568346       86.9556975505  TIP3      2725            0.0000000000
     25526      2862  TIP3      OH2            43.6770858044       44.1871114803       86.2057656544  TIP3      2726            0.0000000000
     25527      2862  TIP3      H1             42.9732546588       43.8474527518       85.6266257435  TIP3      2726            0.0000000000
     25528      2862  TIP3      H2             44.2144902426       44.7121542765       85.5853484037  TIP3      2726            0.0000000000
     25529      2863  TIP3      OH2            50.4299307582       42.2248219335       85.8086099970  TIP3      2727            0.0000000000
     25530      2863  TIP3      H1             49.5379203256       41.8378083111       85.9440681943  TIP3      2727            0.0000000000
     25531      2863  TIP3      H2             50.8891370425       42.0566519827       86.6461732524  TIP3      2727            0.0000000000
     25532      2864  TIP3      OH2            48.0258543147       50.3225047149       85.9938247304  TIP3      2728            0.0000000000
     25533      2864  TIP3      H1             47.9171373117       51.2301711221       86.3620701440  TIP3      2728            0.0000000000
     25534      2864  TIP3      H2             47.9301595033       49.7948957561       86.7983611342  TIP3      2728            0.0000000000
     25535      2865  TIP3      OH2            40.7506123330       46.7793460133       85.6303087915  TIP3      2729            0.0000000000
     25536      2865  TIP3      H1             41.1019323854       47.4732387315       86.2344756707  TIP3      2729            0.0000000000
     25537      2865  TIP3      H2             39.8184947748       46.7363745005       85.9257527967  TIP3      2729            0.0000000000
     25538      2866  TIP3      OH2            52.1580974856       50.8102374358       85.8909538970  TIP3      2730            0.0000000000
     25539      2866  TIP3      H1             52.0389630775       51.2129380657       86.7655605328  TIP3      2730            0.0000000000
     25540      2866  TIP3      H2             51.3625563505       50.2592948325       85.8068646158  TIP3      2730            0.0000000000
     25541      2867  TIP3      OH2            56.0720957961       55.0164660287       86.2335070410  TIP3      2731            0.0000000000
     25542      2867  TIP3      H1             56.9071019935       55.5076809978       86.3125527036  TIP3      2731            0.0000000000
     25543      2867  TIP3      H2             55.5334973567       55.4201945754       86.9308897055  TIP3      2731            0.0000000000
     25544      2868  TIP3      OH2            46.0533095882       52.1715541353       84.4559434917  TIP3      2732            0.0000000000
     25545      2868  TIP3      H1             45.8373720688       51.4951581654       83.7964077799  TIP3      2732            0.0000000000
     25546      2868  TIP3      H2             45.6137242752       51.7768397249       85.2425393939  TIP3      2732            0.0000000000
     25547      2869  TIP3      OH2            44.8046679633       51.1589398746       86.8492830573  TIP3      2733            0.0000000000
     25548      2869  TIP3      H1             44.2386846439       50.6527238325       87.4690943069  TIP3      2733            0.0000000000
     25549      2869  TIP3      H2             44.8513068954       52.0396380343       87.2823449305  TIP3      2733            0.0000000000
     25550      2870  TIP3      OH2            41.2206794140       48.7807099025       87.3121688263  TIP3      2734            0.0000000000
     25551      2870  TIP3      H1             40.7323314155       48.2943226639       88.0084121506  TIP3      2734            0.0000000000
     25552      2870  TIP3      H2             42.0687812036       48.9487131396       87.7727614008  TIP3      2734            0.0000000000
     25553      2871  TIP3      OH2            47.4516402320       52.7878745431       87.0751859239  TIP3      2735            0.0000000000
     25554      2871  TIP3      H1             46.5514684056       53.0304962357       87.3897040947  TIP3      2735            0.0000000000
     25555      2871  TIP3      H2             47.8417350709       53.6790308317       87.0096862078  TIP3      2735            0.0000000000
     25556      2872  TIP3      OH2            45.0287191457       53.6784114124       87.8127666956  TIP3      2736            0.0000000000
     25557      2872  TIP3      H1             45.0509082312       54.3339070826       87.0645077096  TIP3      2736            0.0000000000
     25558      2872  TIP3      H2             44.6577692092       54.2555127370       88.5038168468  TIP3      2736            0.0000000000
     25559      2873  TIP3      OH2            43.4652276383       40.5026074009       86.9600152392  TIP3      2737            0.0000000000
     25560      2873  TIP3      H1             44.0288099485       41.0669483144       87.5338993163  TIP3      2737            0.0000000000
     25561      2873  TIP3      H2             44.1097029095       39.8825365103       86.5882093391  TIP3      2737            0.0000000000
     25562      2874  TIP3      OH2            41.7562851654       51.3502613964       85.9489415145  TIP3      2738            0.0000000000
     25563      2874  TIP3      H1             42.3081210949       51.3799081949       86.7380283942  TIP3      2738            0.0000000000
     25564      2874  TIP3      H2             42.1846906318       50.6194081557       85.4759871829  TIP3      2738            0.0000000000
     25565      2875  TIP3      OH2            40.4934810181       43.9945394919       85.3088905408  TIP3      2739            0.0000000000
     25566      2875  TIP3      H1             40.7940689011       44.8873845632       85.5812384330  TIP3      2739            0.0000000000
     25567      2875  TIP3      H2             39.5287848166       44.0913410523       85.3286706351  TIP3      2739            0.0000000000
     25568      2876  TIP3      OH2            48.1986148967       54.1254367146       84.5428459077  TIP3      2740            0.0000000000
     25569      2876  TIP3      H1             47.5804157556       53.3699247055       84.7019626601  TIP3      2740            0.0000000000
     25570      2876  TIP3      H2             48.9405198573       53.6681072701       84.0963276352  TIP3      2740            0.0000000000
     25571      2877  TIP3      OH2            52.5152761137       53.0362843534       84.2522009092  TIP3      2741            0.0000000000
     25572      2877  TIP3      H1             52.6135091148       52.1711218963       84.7062417589  TIP3      2741            0.0000000000
     25573      2877  TIP3      H2             53.3705484527       53.1280254984       83.7637681400  TIP3      2741            0.0000000000
     25574      2878  TIP3      OH2            43.4648194442       49.1297765845       84.4142265294  TIP3      2742            0.0000000000
     25575      2878  TIP3      H1             43.7841343113       48.7559590795       85.2530626583  TIP3      2742            0.0000000000
     25576      2878  TIP3      H2             44.2569119804       48.9702952578       83.8445783637  TIP3      2742            0.0000000000
     25577      2879  TIP3      OH2            48.9763677229       50.5903792440       83.5405237495  TIP3      2743            0.0000000000
     25578      2879  TIP3      H1             48.4865819573       50.5380932917       84.3985816576  TIP3      2743            0.0000000000
     25579      2879  TIP3      H2             49.1276349519       49.6189155985       83.4661610846  TIP3      2743            0.0000000000
     25580      2880  TIP3      OH2            44.9753508912       47.4897457653       86.7664445727  TIP3      2744            0.0000000000
     25581      2880  TIP3      H1             44.3730342830       46.9071291113       87.2444890295  TIP3      2744            0.0000000000
     25582      2880  TIP3      H2             45.3506583065       46.8490454521       86.1332752532  TIP3      2744            0.0000000000
     25583      2881  TIP3      OH2            45.6248725146       45.6450105090       84.7087221672  TIP3      2745            0.0000000000
     25584      2881  TIP3      H1             45.3930136301       45.8694871118       83.7807903629  TIP3      2745            0.0000000000
     25585      2881  TIP3      H2             46.6009688851       45.7484655579       84.6510233915  TIP3      2745            0.0000000000
     25586      2882  TIP3      OH2            55.2426724854       47.6933771323       84.4484248371  TIP3      2746            0.0000000000
     25587      2882  TIP3      H1             54.9716868801       47.3855944276       83.5519671117  TIP3      2746            0.0000000000
     25588      2882  TIP3      H2             55.1001032311       48.6742380417       84.3694382874  TIP3      2746            0.0000000000
     25589      2883  TIP3      OH2            45.7068745949       55.8295393881       86.5283667057  TIP3      2747            0.0000000000
     25590      2883  TIP3      H1             46.6608968256       55.9787514111       86.4097396407  TIP3      2747            0.0000000000
     25591      2883  TIP3      H2             45.3370595011       56.5656029589       86.0075873697  TIP3      2747            0.0000000000
     25592      2884  TIP3      OH2            38.9069251111       50.5422871031       85.9426354982  TIP3      2748            0.0000000000
     25593      2884  TIP3      H1             39.8381477007       50.8208252520       85.8297234216  TIP3      2748            0.0000000000
     25594      2884  TIP3      H2             38.7497012872       50.0996834493       85.0867731181  TIP3      2748            0.0000000000
     25595      2885  TIP3      OH2            56.6988841768       46.8634849945       86.6287033630  TIP3      2749            0.0000000000
     25596      2885  TIP3      H1             56.1207702190       46.8900542295       85.8392112610  TIP3      2749            0.0000000000
     25597      2885  TIP3      H2             56.7483396798       47.8101661205       86.8360738497  TIP3      2749            0.0000000000
     25598      2886  TIP3      OH2            55.0163043537       43.9579689043       85.7533182015  TIP3      2750            0.0000000000
     25599      2886  TIP3      H1             54.7895112336       44.5130861851       84.9980761015  TIP3      2750            0.0000000000
     25600      2886  TIP3      H2             54.4562464958       43.1757013209       85.5577539330  TIP3      2750            0.0000000000
     25601      2887  TIP3      OH2            54.1058838966       41.6610612970       84.5939213712  TIP3      2751            0.0000000000
     25602      2887  TIP3      H1             54.7364832556       41.1248087694       85.1263352458  TIP3      2751            0.0000000000
     25603      2887  TIP3      H2             53.2531004638       41.3263520085       84.8954749803  TIP3      2751            0.0000000000
     25604      2888  TIP3      OH2            55.9293939245       39.9624355977       85.9414098546  TIP3      2752            0.0000000000
     25605      2888  TIP3      H1             56.3215944009       39.4403272587       85.1956106758  TIP3      2752            0.0000000000
     25606      2888  TIP3      H2             56.7523183373       40.2672081969       86.3744670887  TIP3      2752            0.0000000000
     25607      2889  TIP3      OH2            39.9424789044       38.5781437195       87.2639826667  TIP3      2753            0.0000000000
     25608      2889  TIP3      H1             40.1419722161       38.2510992939       86.3721929210  TIP3      2753            0.0000000000
     25609      2889  TIP3      H2             39.0183256707       38.8671110965       87.1681025038  TIP3      2753            0.0000000000
     25610      2890  TIP3      OH2            41.1229790262       40.5472887792       85.3706904907  TIP3      2754            0.0000000000
     25611      2890  TIP3      H1             41.7084656827       39.9181371531       84.9101888293  TIP3      2754            0.0000000000
     25612      2890  TIP3      H2             41.3895486438       40.4190248088       86.2944578819  TIP3      2754            0.0000000000
     25613      2891  TIP3      OH2            48.7491618797       55.6569545173       86.8694893762  TIP3      2755            0.0000000000
     25614      2891  TIP3      H1             49.6957802381       55.5257045858       87.0228243188  TIP3      2755            0.0000000000
     25615      2891  TIP3      H2             48.6564306632       55.2928513362       85.9636702640  TIP3      2755            0.0000000000
     25616      2892  TIP3      OH2            40.5990116223       54.6687404158       84.5255552843  TIP3      2756            0.0000000000
     25617      2892  TIP3      H1             40.4963984635       54.7820987324       85.4887838287  TIP3      2756            0.0000000000
     25618      2892  TIP3      H2             41.2213454416       53.9106895770       84.4684277650  TIP3      2756            0.0000000000
     25619      2893  TIP3      OH2            63.1795619589       41.2083110847       84.6426046749  TIP3      2757            0.0000000000
     25620      2893  TIP3      H1             62.6495229246       41.2868752955       85.4492772911  TIP3      2757            0.0000000000
     25621      2893  TIP3      H2             62.7096922670       41.8454510677       84.0686919998  TIP3      2757            0.0000000000
     25622      2894  TIP3      OH2            57.6595103839       41.9459635596       86.8936293695  TIP3      2758            0.0000000000
     25623      2894  TIP3      H1             58.4635035404       42.1445676692       86.3806852405  TIP3      2758            0.0000000000
     25624      2894  TIP3      H2             57.0213257680       42.5731068221       86.5068414317  TIP3      2758            0.0000000000
     25625      2895  TIP3      OH2            62.6108091734       44.0264720012       86.0876235924  TIP3      2759            0.0000000000
     25626      2895  TIP3      H1             61.7358699526       43.8639556014       85.6653818546  TIP3      2759            0.0000000000
     25627      2895  TIP3      H2             63.1698910402       44.1328717676       85.3019838691  TIP3      2759            0.0000000000
     25628      2896  TIP3      OH2            59.1754692343       46.6500540691       85.7330489351  TIP3      2760            0.0000000000
     25629      2896  TIP3      H1             59.6369738075       47.2735551474       86.3436178974  TIP3      2760            0.0000000000
     25630      2896  TIP3      H2             58.2735841028       46.6650766728       86.1293787235  TIP3      2760            0.0000000000
     25631      2897  TIP3      OH2            64.6462773719       51.7857907597       84.4261094740  TIP3      2761            0.0000000000
     25632      2897  TIP3      H1             64.3471102348       51.2210650511       83.7047419756  TIP3      2761            0.0000000000
     25633      2897  TIP3      H2             64.1281939678       51.4592502648       85.1864369309  TIP3      2761            0.0000000000
     25634      2898  TIP3      OH2            62.9964686751       51.1922856897       86.6474384256  TIP3      2762            0.0000000000
     25635      2898  TIP3      H1             62.5115586352       50.7807248336       87.3948164523  TIP3      2762            0.0000000000
     25636      2898  TIP3      H2             63.1236773877       52.1006566590       87.0007235131  TIP3      2762            0.0000000000
     25637      2899  TIP3      OH2            60.1401890788       48.4182923155       87.4358045020  TIP3      2763            0.0000000000
     25638      2899  TIP3      H1             59.6727711493       47.9908151764       88.1988128633  TIP3      2763            0.0000000000
     25639      2899  TIP3      H2             60.9225117060       48.8086985226       87.8521594076  TIP3      2763            0.0000000000
     25640      2900  TIP3      OH2            63.0403041197       53.6544337536       87.7695651983  TIP3      2764            0.0000000000
     25641      2900  TIP3      H1             63.1357696106       54.4253264276       87.1793965355  TIP3      2764            0.0000000000
     25642      2900  TIP3      H2             63.8417129493       53.7330148723       88.3125186974  TIP3      2764            0.0000000000
     25643      2901  TIP3      OH2            62.0807615236       40.3830401510       87.2238539100  TIP3      2765            0.0000000000
     25644      2901  TIP3      H1             62.6322782084       41.1101245603       87.5767683990  TIP3      2765            0.0000000000
     25645      2901  TIP3      H2             62.7343624553       39.7975912913       86.8040585711  TIP3      2765            0.0000000000
     25646      2902  TIP3      OH2            60.5337629872       51.3603179101       85.5954858062  TIP3      2766            0.0000000000
     25647      2902  TIP3      H1             61.4144670397       51.5437776641       85.9777744308  TIP3      2766            0.0000000000
     25648      2902  TIP3      H2             60.7820518319       50.5896451576       85.0518258094  TIP3      2766            0.0000000000
     25649      2903  TIP3      OH2            59.5751390515       43.8941129844       85.3775943662  TIP3      2767            0.0000000000
     25650      2903  TIP3      H1             59.6573629463       44.8542128916       85.5807187775  TIP3      2767            0.0000000000
     25651      2903  TIP3      H2             58.6645362741       43.8099879731       85.0583498281  TIP3      2767            0.0000000000
     25652      2904  TIP3      OH2            62.0028661449       49.2744173652       84.3611922144  TIP3      2768            0.0000000000
     25653      2904  TIP3      H1             62.3540511075       48.8777833997       85.1789286162  TIP3      2768            0.0000000000
     25654      2904  TIP3      H2             62.8259873891       49.4379640073       83.8602017206  TIP3      2768            0.0000000000
     25655      2905  TIP3      OH2            63.8059859871       47.7669568043       86.5366591503  TIP3      2769            0.0000000000
     25656      2905  TIP3      H1             63.3204617824       47.0577331890       86.9775231891  TIP3      2769            0.0000000000
     25657      2905  TIP3      H2             64.1906640359       47.2642917092       85.7903485972  TIP3      2769            0.0000000000
     25658      2906  TIP3      OH2            64.8954486120       45.8069275670       84.8665792517  TIP3      2770            0.0000000000
     25659      2906  TIP3      H1             64.3330757133       45.6222566478       84.0877081459  TIP3      2770            0.0000000000
     25660      2906  TIP3      H2             65.7646123498       45.6223009950       84.4856182601  TIP3      2770            0.0000000000
     25661      2907  TIP3      OH2            64.8374023952       55.6353212688       86.2914993926  TIP3      2771            0.0000000000
     25662      2907  TIP3      H1             65.5812742129       55.7387928803       86.8974968788  TIP3      2771            0.0000000000
     25663      2907  TIP3      H2             64.8655598981       56.4889207740       85.8134787994  TIP3      2771            0.0000000000
     25664      2908  TIP3      OH2            57.8702121272       50.5289924867       85.9837829619  TIP3      2772            0.0000000000
     25665      2908  TIP3      H1             58.8152632297       50.7840945433       85.9866132418  TIP3      2772            0.0000000000
     25666      2908  TIP3      H2             57.8080623557       50.0201383717       85.1515916791  TIP3      2772            0.0000000000
     25667      2909  TIP3      OH2            58.5142380682       38.1632719040       86.8835136553  TIP3      2773            0.0000000000
     25668      2909  TIP3      H1             59.1892297223       38.8290917179       87.0250155814  TIP3      2773            0.0000000000
     25669      2909  TIP3      H2             58.6355761713       37.5779777839       87.6662835674  TIP3      2773            0.0000000000
     25670      2910  TIP3      OH2            60.0631005982       40.7188209967       85.5529015358  TIP3      2774            0.0000000000
     25671      2910  TIP3      H1             60.5326134563       40.0291735182       85.0395631867  TIP3      2774            0.0000000000
     25672      2910  TIP3      H2             60.5927001856       40.7273395977       86.3802837845  TIP3      2774            0.0000000000
     25673      2911  TIP3      OH2            59.5126325191       54.8522553457       84.9253770113  TIP3      2775            0.0000000000
     25674      2911  TIP3      H1             59.3440747681       54.9487912992       85.8811953272  TIP3      2775            0.0000000000
     25675      2911  TIP3      H2             60.1582060126       54.1249549509       84.8888392243  TIP3      2775            0.0000000000
     25676      2912  TIP3      OH2            10.9871025259       64.7106689667       86.3322543676  TIP3      2776            0.0000000000
     25677      2912  TIP3      H1             11.9656732654       64.7512127144       86.4233904637  TIP3      2776            0.0000000000
     25678      2912  TIP3      H2             10.8461807762       63.7608107163       86.3151340010  TIP3      2776            0.0000000000
     25679      2913  TIP3      OH2            13.7131887486       64.6642866051       86.8351627509  TIP3      2777            0.0000000000
     25680      2913  TIP3      H1             13.8920842491       65.2215802132       87.6226891711  TIP3      2777            0.0000000000
     25681      2913  TIP3      H2             14.3376844711       65.1221396938       86.2126004420  TIP3      2777            0.0000000000
     25682      2914  TIP3      OH2            16.2813602816       57.3384559267       87.0109952087  TIP3      2778            0.0000000000
     25683      2914  TIP3      H1             16.3634958346       56.7477217163       87.7756246662  TIP3      2778            0.0000000000
     25684      2914  TIP3      H2             17.1990079788       57.6316694954       86.8351766431  TIP3      2778            0.0000000000
     25685      2915  TIP3      OH2            15.2512759701       65.9165661913       85.0147703419  TIP3      2779            0.0000000000
     25686      2915  TIP3      H1             15.7193344268       65.5398901175       84.2520196603  TIP3      2779            0.0000000000
     25687      2915  TIP3      H2             15.9913477734       66.1572855791       85.6081039152  TIP3      2779            0.0000000000
     25688      2916  TIP3      OH2            10.5926238794       59.5525154816       86.1113430400  TIP3      2780            0.0000000000
     25689      2916  TIP3      H1             10.1841078285       59.3197404260       86.9583186408  TIP3      2780            0.0000000000
     25690      2916  TIP3      H2              9.8409884936       59.3473952795       85.5152170234  TIP3      2780            0.0000000000
     25691      2917  TIP3      OH2             6.7961221248       60.3159983975       84.9018193901  TIP3      2781            0.0000000000
     25692      2917  TIP3      H1              6.2016450455       60.0017433532       85.6095971757  TIP3      2781            0.0000000000
     25693      2917  TIP3      H2              6.2194648983       60.9223631176       84.3754775660  TIP3      2781            0.0000000000
     25694      2918  TIP3      OH2             1.3116368579       60.7882195388       87.2878750903  TIP3      2782            0.0000000000
     25695      2918  TIP3      H1              2.1110353486       61.2233173240       86.9543959923  TIP3      2782            0.0000000000
     25696      2918  TIP3      H2              1.0065211745       61.4134239195       87.9580617829  TIP3      2782            0.0000000000
     25697      2919  TIP3      OH2             5.8767277294       62.4644798428       86.3963503003  TIP3      2783            0.0000000000
     25698      2919  TIP3      H1              5.0202399868       62.3710527434       85.9338789095  TIP3      2783            0.0000000000
     25699      2919  TIP3      H2              6.3614131130       63.0047129536       85.7431842816  TIP3      2783            0.0000000000
     25700      2920  TIP3      OH2            12.8815392843       61.2019224698       86.3844551325  TIP3      2784            0.0000000000
     25701      2920  TIP3      H1             12.0649791486       60.6791929500       86.2792069742  TIP3      2784            0.0000000000
     25702      2920  TIP3      H2             12.6712528552       61.7447299993       87.1552219350  TIP3      2784            0.0000000000
     25703      2921  TIP3      OH2             1.6492509144       65.1488068058       85.3352507487  TIP3      2785            0.0000000000
     25704      2921  TIP3      H1              2.0863596212       66.0247946152       85.2422180358  TIP3      2785            0.0000000000
     25705      2921  TIP3      H2              0.9380343267       65.4474099755       85.9250910140  TIP3      2785            0.0000000000
     25706      2922  TIP3      OH2             5.5469322012       59.2203483625       87.1302994935  TIP3      2786            0.0000000000
     25707      2922  TIP3      H1              5.6480703873       60.1384255317       87.4355063218  TIP3      2786            0.0000000000
     25708      2922  TIP3      H2              6.4154833750       58.8824881908       87.4255072234  TIP3      2786            0.0000000000
     25709      2923  TIP3      OH2             3.3046087987       62.6129178010       85.1945373973  TIP3      2787            0.0000000000
     25710      2923  TIP3      H1              2.6946437717       63.2729831886       85.5655553953  TIP3      2787            0.0000000000
     25711      2923  TIP3      H2              2.7829126549       62.1869261517       84.5050277696  TIP3      2787            0.0000000000
     25712      2924  TIP3      OH2             7.1673960542       65.6501580940       87.6417360760  TIP3      2788            0.0000000000
     25713      2924  TIP3      H1              6.6399486158       66.4510162829       87.4428747514  TIP3      2788            0.0000000000
     25714      2924  TIP3      H2              7.3415357988       65.3048027639       86.7568686717  TIP3      2788            0.0000000000
     25715      2925  TIP3      OH2             7.9376957422       64.1629524510       84.7122711238  TIP3      2789            0.0000000000
     25716      2925  TIP3      H1              8.1320680545       64.4546385635       83.8026375525  TIP3      2789            0.0000000000
     25717      2925  TIP3      H2              8.6768561388       64.5643824754       85.1872381669  TIP3      2789            0.0000000000
     25718      2926  TIP3      OH2            18.9048812002       64.6388439050       86.2179124135  TIP3      2790            0.0000000000
     25719      2926  TIP3      H1             18.2787825518       64.2880383528       85.5491095547  TIP3      2790            0.0000000000
     25720      2926  TIP3      H2             18.3279212490       65.2697095819       86.6930319395  TIP3      2790            0.0000000000
     25721      2927  TIP3      OH2            17.1188587814       62.8927459445       84.8928892642  TIP3      2791            0.0000000000
     25722      2927  TIP3      H1             17.6540544893       63.0325856431       84.0876155957  TIP3      2791            0.0000000000
     25723      2927  TIP3      H2             17.0214307430       61.9349643892       84.8392430884  TIP3      2791            0.0000000000
     25724      2928  TIP3      OH2            16.2827644064       59.8510660908       83.9480137291  TIP3      2792            0.0000000000
     25725      2928  TIP3      H1             17.1002777409       59.4770113921       84.3268940608  TIP3      2792            0.0000000000
     25726      2928  TIP3      H2             16.0307933593       59.1794518404       83.2989139961  TIP3      2792            0.0000000000
     25727      2929  TIP3      OH2            18.2788759943       58.6803749366       85.8601021592  TIP3      2793            0.0000000000
     25728      2929  TIP3      H1             18.6091719068       58.0480171819       85.1760709596  TIP3      2793            0.0000000000
     25729      2929  TIP3      H2             19.1014997025       59.0829653129       86.2048845549  TIP3      2793            0.0000000000
     25730      2930  TIP3      OH2             1.5405346471       57.1364920216       86.8969731046  TIP3      2794            0.0000000000
     25731      2930  TIP3      H1              1.8732341603       57.2255027884       85.9885806851  TIP3      2794            0.0000000000
     25732      2930  TIP3      H2              1.1803852280       58.0312837151       87.0188323503  TIP3      2794            0.0000000000
     25733      2931  TIP3      OH2             3.3120003291       59.1824658540       85.5213389038  TIP3      2795            0.0000000000
     25734      2931  TIP3      H1              3.9055814118       58.5855180648       85.0229710816  TIP3      2795            0.0000000000
     25735      2931  TIP3      H2              3.8337583838       59.2976565965       86.3368051563  TIP3      2795            0.0000000000
     25736      2932  TIP3      OH2            30.0484002878       64.4622613065       85.4299787306  TIP3      2796            0.0000000000
     25737      2932  TIP3      H1             30.7936886267       64.8415352531       85.9358906270  TIP3      2796            0.0000000000
     25738      2932  TIP3      H2             30.1281200672       63.5336679251       85.6822806912  TIP3      2796            0.0000000000
     25739      2933  TIP3      OH2            32.6103954818       64.8048503651       86.7647481912  TIP3      2797            0.0000000000
     25740      2933  TIP3      H1             32.8331405591       65.0500069384       87.6909048005  TIP3      2797            0.0000000000
     25741      2933  TIP3      H2             33.2425743328       65.3660368061       86.2658578582  TIP3      2797            0.0000000000
     25742      2934  TIP3      OH2            35.6381658061       56.7170441545       87.2082301855  TIP3      2798            0.0000000000
     25743      2934  TIP3      H1             34.9268713876       57.0322506102       87.7677683455  TIP3      2798            0.0000000000
     25744      2934  TIP3      H2             36.1323472846       57.5282395222       86.9541145373  TIP3      2798            0.0000000000
     25745      2935  TIP3      OH2            34.0823922220       66.3284110326       85.0939294780  TIP3      2799            0.0000000000
     25746      2935  TIP3      H1             34.4486606726       66.0691895854       84.2177971553  TIP3      2799            0.0000000000
     25747      2935  TIP3      H2             34.8972674739       66.4836821427       85.5972198971  TIP3      2799            0.0000000000
     25748      2936  TIP3      OH2            29.3620176087       59.8725633453       85.9273078945  TIP3      2800            0.0000000000
     25749      2936  TIP3      H1             28.7061721050       60.0823381724       86.6046413689  TIP3      2800            0.0000000000
     25750      2936  TIP3      H2             28.9077361317       59.1661584519       85.4471991103  TIP3      2800            0.0000000000
     25751      2937  TIP3      OH2            25.6766629162       60.2533894393       85.0074420864  TIP3      2801            0.0000000000
     25752      2937  TIP3      H1             25.2024298366       59.9083939282       85.7873832446  TIP3      2801            0.0000000000
     25753      2937  TIP3      H2             25.1356022131       61.0259456482       84.7755256879  TIP3      2801            0.0000000000
     25754      2938  TIP3      OH2            20.1705356548       60.0949768451       87.2428870550  TIP3      2802            0.0000000000
     25755      2938  TIP3      H1             20.8746295513       60.0503830144       86.5633731255  TIP3      2802            0.0000000000
     25756      2938  TIP3      H2             20.4642804093       60.8787785750       87.7339204347  TIP3      2802            0.0000000000
     25757      2939  TIP3      OH2            24.7529727595       63.3141237610       86.4356870517  TIP3      2803            0.0000000000
     25758      2939  TIP3      H1             24.1344061762       63.1736682255       85.7033564609  TIP3      2803            0.0000000000
     25759      2939  TIP3      H2             25.6007699020       63.3782930505       85.9313329183  TIP3      2803            0.0000000000
     25760      2940  TIP3      OH2            32.0311632237       60.7542905332       86.1756472523  TIP3      2804            0.0000000000
     25761      2940  TIP3      H1             31.0926708647       60.4877756213       86.0864666550  TIP3      2804            0.0000000000
     25762      2940  TIP3      H2             31.9460633631       61.7091172774       86.1222322004  TIP3      2804            0.0000000000
     25763      2941  TIP3      OH2            21.4658011829       65.0890625978       85.2408571969  TIP3      2805            0.0000000000
     25764      2941  TIP3      H1             21.7914998715       65.5355393916       86.0376658355  TIP3      2805            0.0000000000
     25765      2941  TIP3      H2             20.4987604094       65.1546919181       85.4142839523  TIP3      2805            0.0000000000
     25766      2942  TIP3      OH2            24.4172115968       59.1815519518       87.4518715960  TIP3      2806            0.0000000000
     25767      2942  TIP3      H1             24.2725918897       60.1312333895       87.6003881270  TIP3      2806            0.0000000000
     25768      2942  TIP3      H2             25.3452059709       59.1708001066       87.7639474033  TIP3      2806            0.0000000000
     25769      2943  TIP3      OH2            21.2340969250       62.3963994394       85.3921981801  TIP3      2807            0.0000000000
     25770      2943  TIP3      H1             21.3725434321       63.3663811993       85.4294642736  TIP3      2807            0.0000000000
     25771      2943  TIP3      H2             20.4566415573       62.2997176349       85.9659686384  TIP3      2807            0.0000000000
     25772      2944  TIP3      OH2            25.3699545992       66.2582572413       86.2488107047  TIP3      2808            0.0000000000
     25773      2944  TIP3      H1             25.8486596696       66.5543302550       87.0303344298  TIP3      2808            0.0000000000
     25774      2944  TIP3      H2             25.3314928129       65.3005668308       86.3993806001  TIP3      2808            0.0000000000
     25775      2945  TIP3      OH2            27.0338573775       63.9171308254       85.1621000756  TIP3      2809            0.0000000000
     25776      2945  TIP3      H1             26.7558373940       64.0121418516       84.2186928033  TIP3      2809            0.0000000000
     25777      2945  TIP3      H2             27.9908761839       63.8516933740       85.0643302863  TIP3      2809            0.0000000000
     25778      2946  TIP3      OH2            37.9416207764       64.4439540485       86.5159897974  TIP3      2810            0.0000000000
     25779      2946  TIP3      H1             37.0957263636       64.0215338919       86.2805615615  TIP3      2810            0.0000000000
     25780      2946  TIP3      H2             37.7819823491       64.6461961673       87.4514372476  TIP3      2810            0.0000000000
     25781      2947  TIP3      OH2            35.8685195749       62.9436516827       85.2579212234  TIP3      2811            0.0000000000
     25782      2947  TIP3      H1             36.3462334645       63.3489117613       84.5049311800  TIP3      2811            0.0000000000
     25783      2947  TIP3      H2             36.0611308914       62.0097620869       85.1167432328  TIP3      2811            0.0000000000
     25784      2948  TIP3      OH2            35.2498656267       59.7508909774       84.1650535367  TIP3      2812            0.0000000000
     25785      2948  TIP3      H1             35.9465747199       59.3758948089       84.7368090695  TIP3      2812            0.0000000000
     25786      2948  TIP3      H2             34.5137179496       59.8079558244       84.7996094526  TIP3      2812            0.0000000000
     25787      2949  TIP3      OH2            37.2000916709       58.5328766527       85.9723339906  TIP3      2813            0.0000000000
     25788      2949  TIP3      H1             37.7691335717       58.0205994026       85.3387643464  TIP3      2813            0.0000000000
     25789      2949  TIP3      H2             37.8705632470       59.1482999791       86.3243710549  TIP3      2813            0.0000000000
     25790      2950  TIP3      OH2            20.4289160918       56.6057055541       86.9512670754  TIP3      2814            0.0000000000
     25791      2950  TIP3      H1             20.3131121009       57.4970912423       87.3081139649  TIP3      2814            0.0000000000
     25792      2950  TIP3      H2             20.7281375566       56.1298044043       87.7670703417  TIP3      2814            0.0000000000
     25793      2951  TIP3      OH2            22.4264652798       59.1844134038       85.6950410668  TIP3      2815            0.0000000000
     25794      2951  TIP3      H1             22.6550473417       58.5379362131       85.0080978939  TIP3      2815            0.0000000000
     25795      2951  TIP3      H2             23.0063844084       58.8741086289       86.4213488522  TIP3      2815            0.0000000000
     25796      2952  TIP3      OH2            48.9687827771       64.1487443697       85.3911019805  TIP3      2816            0.0000000000
     25797      2952  TIP3      H1             49.5131875021       64.5007458600       86.1246075609  TIP3      2816            0.0000000000
     25798      2952  TIP3      H2             48.7890616318       63.2514797521       85.6961726501  TIP3      2816            0.0000000000
     25799      2953  TIP3      OH2            50.4945229733       65.1541972756       87.4553653401  TIP3      2817            0.0000000000
     25800      2953  TIP3      H1             51.0364615418       65.4654725526       88.2238707492  TIP3      2817            0.0000000000
     25801      2953  TIP3      H2             49.9385444842       65.9397189791       87.3569500600  TIP3      2817            0.0000000000
     25802      2954  TIP3      OH2            54.6382126362       57.3129307270       87.8426699455  TIP3      2818            0.0000000000
     25803      2954  TIP3      H1             53.6936558730       57.2419809356       87.6644934176  TIP3      2818            0.0000000000
     25804      2954  TIP3      H2             54.9875673131       57.8810113899       87.1155747533  TIP3      2818            0.0000000000
     25805      2955  TIP3      OH2            52.9467251633       65.5950253409       85.3215066925  TIP3      2819            0.0000000000
     25806      2955  TIP3      H1             53.2444301392       65.7804825314       84.4107185714  TIP3      2819            0.0000000000
     25807      2955  TIP3      H2             53.2930122253       66.3568600212       85.8112132791  TIP3      2819            0.0000000000
     25808      2956  TIP3      OH2            48.5178859964       59.8923881732       86.0318373997  TIP3      2820            0.0000000000
     25809      2956  TIP3      H1             47.7069736032       59.7238401126       86.5283912713  TIP3      2820            0.0000000000
     25810      2956  TIP3      H2             48.3455503603       59.3734636432       85.2305882829  TIP3      2820            0.0000000000
     25811      2957  TIP3      OH2            44.3970308544       60.3074032754       84.8020032811  TIP3      2821            0.0000000000
     25812      2957  TIP3      H1             43.9669174067       60.2709651874       85.6755986230  TIP3      2821            0.0000000000
     25813      2957  TIP3      H2             43.8190336536       60.9343743200       84.3248728327  TIP3      2821            0.0000000000
     25814      2958  TIP3      OH2            38.9285301362       60.4179506917       87.1596007058  TIP3      2822            0.0000000000
     25815      2958  TIP3      H1             39.7080525250       60.6199239269       86.6035454586  TIP3      2822            0.0000000000
     25816      2958  TIP3      H2             38.6365247345       61.3204249290       87.3301791447  TIP3      2822            0.0000000000
     25817      2959  TIP3      OH2            43.5774463719       62.6735452208       86.1440455260  TIP3      2823            0.0000000000
     25818      2959  TIP3      H1             42.8654435086       62.5768823848       85.4893588453  TIP3      2823            0.0000000000
     25819      2959  TIP3      H2             44.2617612042       63.1685829280       85.6495943551  TIP3      2823            0.0000000000
     25820      2960  TIP3      OH2            50.5562736978       61.5970968167       86.8487125606  TIP3      2824            0.0000000000
     25821      2960  TIP3      H1             49.7938817480       61.1210720220       86.4476015168  TIP3      2824            0.0000000000
     25822      2960  TIP3      H2             50.4303991042       61.4210139045       87.8126578757  TIP3      2824            0.0000000000
     25823      2961  TIP3      OH2            40.3594804770       65.1944009395       85.5388420887  TIP3      2825            0.0000000000
     25824      2961  TIP3      H1             40.5793785437       65.5203162135       86.4341353891  TIP3      2825            0.0000000000
     25825      2961  TIP3      H2             39.3804610110       65.2002383484       85.6188347567  TIP3      2825            0.0000000000
     25826      2962  TIP3      OH2            43.1328096731       59.3402021983       87.2166852329  TIP3      2826            0.0000000000
     25827      2962  TIP3      H1             43.6391410324       60.0235674459       87.7148845927  TIP3      2826            0.0000000000
     25828      2962  TIP3      H2             43.8012054923       58.6481138096       87.0855471649  TIP3      2826            0.0000000000
     25829      2963  TIP3      OH2            40.3716081207       62.4823714465       85.2367240757  TIP3      2827            0.0000000000
     25830      2963  TIP3      H1             40.6622111550       63.3126854699       85.6582338469  TIP3      2827            0.0000000000
     25831      2963  TIP3      H2             39.4146678360       62.5537682198       85.3344797992  TIP3      2827            0.0000000000
     25832      2964  TIP3      OH2            44.5514171885       66.4713595786       86.7521088665  TIP3      2828            0.0000000000
     25833      2964  TIP3      H1             44.8014882553       66.1885742603       87.6404011384  TIP3      2828            0.0000000000
     25834      2964  TIP3      H2             44.8395427451       65.7093306347       86.2212658721  TIP3      2828            0.0000000000
     25835      2965  TIP3      OH2            45.5638620141       64.2632499561       84.7991362360  TIP3      2829            0.0000000000
     25836      2965  TIP3      H1             45.3338115247       64.3606796789       83.8491575286  TIP3      2829            0.0000000000
     25837      2965  TIP3      H2             46.5092575167       64.4999985735       84.7556433983  TIP3      2829            0.0000000000
     25838      2966  TIP3      OH2            56.3372259163       64.7829173290       86.5648406585  TIP3      2830            0.0000000000
     25839      2966  TIP3      H1             55.6447678209       65.1454273214       85.9908136965  TIP3      2830            0.0000000000
     25840      2966  TIP3      H2             56.2798057010       65.3252525577       87.3653422086  TIP3      2830            0.0000000000
     25841      2967  TIP3      OH2            53.8187242606       62.4208091286       84.8048149230  TIP3      2831            0.0000000000
     25842      2967  TIP3      H1             54.6129004569       62.7558748718       84.3399917156  TIP3      2831            0.0000000000
     25843      2967  TIP3      H2             53.8597786584       61.4581443798       84.5990276125  TIP3      2831            0.0000000000
     25844      2968  TIP3      OH2            54.0090641838       59.7735136913       84.3268019904  TIP3      2832            0.0000000000
     25845      2968  TIP3      H1             54.7008713810       59.4228031572       84.9414637593  TIP3      2832            0.0000000000
     25846      2968  TIP3      H2             53.2170545252       59.3366120939       84.6603285834  TIP3      2832            0.0000000000
     25847      2969  TIP3      OH2            55.8343962899       58.8297863445       86.0061247972  TIP3      2833            0.0000000000
     25848      2969  TIP3      H1             56.1666252995       58.1898614187       85.3311102136  TIP3      2833            0.0000000000
     25849      2969  TIP3      H2             56.6730359673       59.1966753649       86.3658665063  TIP3      2833            0.0000000000
     25850      2970  TIP3      OH2            39.8222646812       56.9592362366       86.8485792649  TIP3      2834            0.0000000000
     25851      2970  TIP3      H1             40.0269057447       57.4837646669       86.0572925504  TIP3      2834            0.0000000000
     25852      2970  TIP3      H2             39.3688389152       57.5752099508       87.4369432977  TIP3      2834            0.0000000000
     25853      2971  TIP3      OH2            41.0959844660       59.2413972336       85.4176249426  TIP3      2835            0.0000000000
     25854      2971  TIP3      H1             41.6263954594       58.6268215627       84.8765482253  TIP3      2835            0.0000000000
     25855      2971  TIP3      H2             41.7151779415       59.4208199913       86.1672930802  TIP3      2835            0.0000000000
     25856      2972  TIP3      OH2            63.7354004774       60.7595540114       85.1070800564  TIP3      2836            0.0000000000
     25857      2972  TIP3      H1             63.2709230846       60.2874356235       85.8302110397  TIP3      2836            0.0000000000
     25858      2972  TIP3      H2             63.0972351621       61.4435626028       84.8232943366  TIP3      2836            0.0000000000
     25859      2973  TIP3      OH2            58.0655732143       60.0093695593       87.2300932949  TIP3      2837            0.0000000000
     25860      2973  TIP3      H1             58.8265991447       60.1169016865       86.6209613849  TIP3      2837            0.0000000000
     25861      2973  TIP3      H2             57.8587198326       60.9332922175       87.4328331371  TIP3      2837            0.0000000000
     25862      2974  TIP3      OH2            62.2688839762       63.4013598483       86.5543932363  TIP3      2838            0.0000000000
     25863      2974  TIP3      H1             61.6599273667       63.0202706605       85.8998964484  TIP3      2838            0.0000000000
     25864      2974  TIP3      H2             63.0017033447       63.6483105520       85.9565983003  TIP3      2838            0.0000000000
     25865      2975  TIP3      OH2            58.9288464459       65.2258209399       85.5266447822  TIP3      2839            0.0000000000
     25866      2975  TIP3      H1             59.2103239892       65.6966798468       86.3332742878  TIP3      2839            0.0000000000
     25867      2975  TIP3      H2             57.9679792077       65.1983659596       85.6909359659  TIP3      2839            0.0000000000
     25868      2976  TIP3      OH2            62.2674806085       59.6120619799       87.3095068043  TIP3      2840            0.0000000000
     25869      2976  TIP3      H1             61.9609827146       60.4059476698       87.7746687832  TIP3      2840            0.0000000000
     25870      2976  TIP3      H2             63.1893666909       59.6594896368       87.6310632147  TIP3      2840            0.0000000000
     25871      2977  TIP3      OH2            58.8953882077       62.5953204162       85.2106535056  TIP3      2841            0.0000000000
     25872      2977  TIP3      H1             59.1155956696       63.4903159999       85.5537433887  TIP3      2841            0.0000000000
     25873      2977  TIP3      H2             57.9391954837       62.5966013224       85.3733091087  TIP3      2841            0.0000000000
     25874      2978  TIP3      OH2            63.1995441642       66.4075024439       85.9648904331  TIP3      2842            0.0000000000
     25875      2978  TIP3      H1             63.3157834032       65.9048142978       86.7855093027  TIP3      2842            0.0000000000
     25876      2978  TIP3      H2             63.8535792903       65.9661739411       85.3927581146  TIP3      2842            0.0000000000
     25877      2979  TIP3      OH2            64.5088603804       64.1047147809       84.9346378376  TIP3      2843            0.0000000000
     25878      2979  TIP3      H1             64.1546927771       63.6782229606       84.1313516163  TIP3      2843            0.0000000000
     25879      2979  TIP3      H2             65.3840347211       64.3381140158       84.5824100789  TIP3      2843            0.0000000000
     25880      2980  TIP3      OH2            58.5404021403       57.0980856611       87.2088183513  TIP3      2844            0.0000000000
     25881      2980  TIP3      H1             59.3499988215       57.2632849724       86.7200997902  TIP3      2844            0.0000000000
     25882      2980  TIP3      H2             58.3222572692       57.9990203305       87.4965901646  TIP3      2844            0.0000000000
     25883      2981  TIP3      OH2            60.2549609026       59.1989310563       85.6135133632  TIP3      2845            0.0000000000
     25884      2981  TIP3      H1             60.5894983496       58.5540782847       84.9592012543  TIP3      2845            0.0000000000
     25885      2981  TIP3      H2             61.0376697058       59.2640886332       86.2039933442  TIP3      2845            0.0000000000
     25886      2982  TIP3      OH2            12.4929327300       10.0925959734       10.0128977439  TIP3      2846            0.0000000000
     25887      2982  TIP3      H1             12.2452921673       11.0485365070       10.0390227734  TIP3      2846            0.0000000000
     25888      2982  TIP3      H2             11.8822810814        9.7694688210        9.3277606932  TIP3      2846            0.0000000000
     25889      2983  TIP3      OH2            11.0290047460        8.7172747588       13.2129744081  TIP3      2847            0.0000000000
     25890      2983  TIP3      H1             10.9712907884        8.4456347925       14.1476565986  TIP3      2847            0.0000000000
     25891      2983  TIP3      H2             10.4003868374        8.1182060890       12.7812397627  TIP3      2847            0.0000000000
     25892      2984  TIP3      OH2             3.2032837500        9.1727324841       14.8883024479  TIP3      2848            0.0000000000
     25893      2984  TIP3      H1              3.5109371118        8.3306278642       15.2443508861  TIP3      2848            0.0000000000
     25894      2984  TIP3      H2              3.8903051490        9.7885086096       15.2030481025  TIP3      2848            0.0000000000
     25895      2985  TIP3      OH2            14.5125234198       11.7975583276       12.1969123316  TIP3      2849            0.0000000000
     25896      2985  TIP3      H1             14.2966863534       11.0725523018       12.8075701823  TIP3      2849            0.0000000000
     25897      2985  TIP3      H2             14.9452120739       12.4411487870       12.7824065992  TIP3      2849            0.0000000000
     25898      2986  TIP3      OH2             4.4081804115       13.3261864945       13.2393972108  TIP3      2850            0.0000000000
     25899      2986  TIP3      H1              4.0928907729       12.4155905659       13.0337215915  TIP3      2850            0.0000000000
     25900      2986  TIP3      H2              5.3709264623       13.2153218911       13.0806712786  TIP3      2850            0.0000000000
     25901      2987  TIP3      OH2             0.7556327798        6.9731034719        9.1879224096  TIP3      2851            0.0000000000
     25902      2987  TIP3      H1              0.8828188600        7.9150326402        9.0162482163  TIP3      2851            0.0000000000
     25903      2987  TIP3      H2             -0.1350574625        6.8383064089        8.8385428542  TIP3      2851            0.0000000000
     25904      2988  TIP3      OH2             1.6654690190        9.2948173731       11.4530978517  TIP3      2852            0.0000000000
     25905      2988  TIP3      H1              2.0977986427        8.4138681779       11.5781922992  TIP3      2852            0.0000000000
     25906      2988  TIP3      H2              2.4321555379        9.8712438772       11.2829632206  TIP3      2852            0.0000000000
     25907      2989  TIP3      OH2            11.8477122139       17.2615727250       11.9369454404  TIP3      2853            0.0000000000
     25908      2989  TIP3      H1             12.4199823509       16.7069373043       11.3547333935  TIP3      2853            0.0000000000
     25909      2989  TIP3      H2             11.3244420174       16.5589644509       12.3409202570  TIP3      2853            0.0000000000
     25910      2990  TIP3      OH2             8.9400093246       11.9188620766       14.4188053484  TIP3      2854            0.0000000000
     25911      2990  TIP3      H1              9.5430653670       11.4451835531       13.8256120152  TIP3      2854            0.0000000000
     25912      2990  TIP3      H2              9.5801120428       12.2741567110       15.0723166708  TIP3      2854            0.0000000000
     25913      2991  TIP3      OH2            17.8835198542        3.1350804091       14.1989800854  TIP3      2855            0.0000000000
     25914      2991  TIP3      H1             18.2795438593        3.5461275524       15.0047468297  TIP3      2855            0.0000000000
     25915      2991  TIP3      H2             18.6804672168        2.8972320372       13.6966111333  TIP3      2855            0.0000000000
     25916      2992  TIP3      OH2            13.0182218963        6.2721853330       14.6107436865  TIP3      2856            0.0000000000
     25917      2992  TIP3      H1             12.9286635016        5.5211058918       15.2273796003  TIP3      2856            0.0000000000
     25918      2992  TIP3      H2             12.4868432007        5.9622977722       13.8448414002  TIP3      2856            0.0000000000
     25919      2993  TIP3      OH2             5.4952563673        3.9828572761       11.3295486085  TIP3      2857            0.0000000000
     25920      2993  TIP3      H1              5.7208140677        4.7135295724       10.7070180542  TIP3      2857            0.0000000000
     25921      2993  TIP3      H2              5.2872989591        3.2817350992       10.6724641402  TIP3      2857            0.0000000000
     25922      2994  TIP3      OH2            13.3844421889        4.6486750502       10.5271518453  TIP3      2858            0.0000000000
     25923      2994  TIP3      H1             14.0058031442        4.2719873798       11.1844444444  TIP3      2858            0.0000000000
     25924      2994  TIP3      H2             13.8852588681        5.3625031219       10.0967474179  TIP3      2858            0.0000000000
     25925      2995  TIP3      OH2             2.7541486504        6.9958573679       12.1158715111  TIP3      2859            0.0000000000
     25926      2995  TIP3      H1              3.1324763617        6.4179042832       12.8000739022  TIP3      2859            0.0000000000
     25927      2995  TIP3      H2              3.1095513106        6.5939975556       11.2885435032  TIP3      2859            0.0000000000
     25928      2996  TIP3      OH2             7.2280124228        7.8487749487       11.8274136988  TIP3      2860            0.0000000000
     25929      2996  TIP3      H1              7.9658421530        7.2834169333       12.1584533232  TIP3      2860            0.0000000000
     25930      2996  TIP3      H2              6.9211194495        7.2842246452       11.0773380937  TIP3      2860            0.0000000000
     25931      2997  TIP3      OH2            18.3094364446        4.3292842037       16.6658299362  TIP3      2861            0.0000000000
     25932      2997  TIP3      H1             17.8560837376        5.1774564268       16.4335544229  TIP3      2861            0.0000000000
     25933      2997  TIP3      H2             18.4126711159        4.4792749762       17.6090226220  TIP3      2861            0.0000000000
     25934      2998  TIP3      OH2             4.8967637711        2.9900200646       15.2688002522  TIP3      2862            0.0000000000
     25935      2998  TIP3      H1              4.6421422028        3.7181914753       14.6538887280  TIP3      2862            0.0000000000
     25936      2998  TIP3      H2              4.1235051674        2.9790275885       15.8735623752  TIP3      2862            0.0000000000
     25937      2999  TIP3      OH2            11.4993436296       12.3190683059        9.0073202960  TIP3      2863            0.0000000000
     25938      2999  TIP3      H1             11.3857881947       12.3733095878        8.0423259686  TIP3      2863            0.0000000000
     25939      2999  TIP3      H2             11.0251747825       13.1271956445        9.2906638280  TIP3      2863            0.0000000000
     25940      3000  TIP3      OH2             6.5620517103       10.5782047799       15.2562110515  TIP3      2864            0.0000000000
     25941      3000  TIP3      H1              6.1325530802       11.2953551913       15.7737129973  TIP3      2864            0.0000000000
     25942      3000  TIP3      H2              7.2758508290       11.0860913228       14.8147923975  TIP3      2864            0.0000000000
     25943      3001  TIP3      OH2            15.4048297739        3.3314385002       11.6943583708  TIP3      2865            0.0000000000
     25944      3001  TIP3      H1             15.0185617856        3.1659276618       12.5797415356  TIP3      2865            0.0000000000
     25945      3001  TIP3      H2             16.3388296804        3.4461392224       11.9381898994  TIP3      2865            0.0000000000
     25946      3002  TIP3      OH2             4.2192474145        4.9176365798       13.5444018623  TIP3      2866            0.0000000000
     25947      3002  TIP3      H1              4.7692016083        5.5918151943       14.0048008801  TIP3      2866            0.0000000000
     25948      3002  TIP3      H2              4.7526233656        4.6873250101       12.7383909244  TIP3      2866            0.0000000000
     25949      3003  TIP3      OH2             5.5054648851       12.7739384457       16.3804129516  TIP3      2867            0.0000000000
     25950      3003  TIP3      H1              5.2618957975       13.3707768363       15.6552117618  TIP3      2867            0.0000000000
     25951      3003  TIP3      H2              4.6867584146       12.8011938726       16.9353013250  TIP3      2867            0.0000000000
     25952      3004  TIP3      OH2             1.7285707774       12.1959427643        7.2214403431  TIP3      2868            0.0000000000
     25953      3004  TIP3      H1              0.8292027017       11.8062511275        7.1843540503  TIP3      2868            0.0000000000
     25954      3004  TIP3      H2              1.6915457485       12.7060062725        8.0476481835  TIP3      2868            0.0000000000
     25955      3005  TIP3      OH2            15.3224074672       13.8530464414       14.0100508176  TIP3      2869            0.0000000000
     25956      3005  TIP3      H1             14.3592769221       13.9310914133       14.1936851785  TIP3      2869            0.0000000000
     25957      3005  TIP3      H2             15.4766453026       14.7730676428       13.7019753701  TIP3      2869            0.0000000000
     25958      3006  TIP3      OH2            15.6518115757        3.4500786607       15.9503416800  TIP3      2870            0.0000000000
     25959      3006  TIP3      H1             14.8573614087        3.3654477073       15.4102349030  TIP3      2870            0.0000000000
     25960      3006  TIP3      H2             16.3632014587        3.3660381844       15.2836075655  TIP3      2870            0.0000000000
     25961      3007  TIP3      OH2             8.6149654730        0.7579450910       12.9551216442  TIP3      2871            0.0000000000
     25962      3007  TIP3      H1              8.3192148388       -0.1370092926       12.6951594566  TIP3      2871            0.0000000000
     25963      3007  TIP3      H2              7.7624224683        1.1164420034       13.2989846230  TIP3      2871            0.0000000000
     25964      3008  TIP3      OH2            13.4222138148       15.9800200197       10.3096273279  TIP3      2872            0.0000000000
     25965      3008  TIP3      H1             13.6335334379       15.1118662518        9.9080187970  TIP3      2872            0.0000000000
     25966      3008  TIP3      H2             14.3018556244       16.4366496677       10.2224228259  TIP3      2872            0.0000000000
     25967      3009  TIP3      OH2            14.5041452341       13.5921598386        8.9906399730  TIP3      2873            0.0000000000
     25968      3009  TIP3      H1             14.4824651468       12.8451246524        8.3525823265  TIP3      2873            0.0000000000
     25969      3009  TIP3      H2             14.4098083579       13.0821519773        9.8142252189  TIP3      2873            0.0000000000
     25970      3010  TIP3      OH2            16.1958916535       12.3116341866       18.0576716934  TIP3      2874            0.0000000000
     25971      3010  TIP3      H1             16.4500690768       11.5993424326       17.4300389942  TIP3      2874            0.0000000000
     25972      3010  TIP3      H2             16.2465495962       13.0768442176       17.4444730385  TIP3      2874            0.0000000000
     25973      3011  TIP3      OH2            10.8207705031        9.0186517448        7.5149072278  TIP3      2875            0.0000000000
     25974      3011  TIP3      H1             10.0013476624        9.5378268547        7.6686007253  TIP3      2875            0.0000000000
     25975      3011  TIP3      H2             11.3013137805        9.6981821886        7.0096227124  TIP3      2875            0.0000000000
     25976      3012  TIP3      OH2            10.7487401390        8.3338520700        4.5479006064  TIP3      2876            0.0000000000
     25977      3012  TIP3      H1             11.2312033972        8.5518838094        5.3585281250  TIP3      2876            0.0000000000
     25978      3012  TIP3      H2             10.9285802530        7.3862082952        4.4768362136  TIP3      2876            0.0000000000
     25979      3013  TIP3      OH2            18.2883081844        8.8403381677       15.8834853740  TIP3      2877            0.0000000000
     25980      3013  TIP3      H1             17.6476687307        9.5657539303       15.7983185314  TIP3      2877            0.0000000000
     25981      3013  TIP3      H2             18.7606739322        8.9247619739       15.0249058914  TIP3      2877            0.0000000000
     25982      3014  TIP3      OH2            14.5574625261        8.8679587810        8.7344867796  TIP3      2878            0.0000000000
     25983      3014  TIP3      H1             13.8664862109        9.2454402477        9.3333052027  TIP3      2878            0.0000000000
     25984      3014  TIP3      H2             15.1844298698        8.4882152730        9.3816666807  TIP3      2878            0.0000000000
     25985      3015  TIP3      OH2            13.5307572402        7.0293540904       18.3347445599  TIP3      2879            0.0000000000
     25986      3015  TIP3      H1             13.5064990871        7.5690549228       19.1488107948  TIP3      2879            0.0000000000
     25987      3015  TIP3      H2             13.2630834822        7.6616291292       17.6423193160  TIP3      2879            0.0000000000
     25988      3016  TIP3      OH2             5.7504669255        9.9346911791       10.6320642772  TIP3      2880            0.0000000000
     25989      3016  TIP3      H1              5.5773535407        9.5174201954        9.7563567816  TIP3      2880            0.0000000000
     25990      3016  TIP3      H2              6.3078656964        9.2573053068       11.0656029977  TIP3      2880            0.0000000000
     25991      3017  TIP3      OH2             7.1103097442       13.3014695682       12.9671572644  TIP3      2881            0.0000000000
     25992      3017  TIP3      H1              7.2544281256       13.2686744715       12.0030246379  TIP3      2881            0.0000000000
     25993      3017  TIP3      H2              7.8313215784       12.7568534228       13.3622522484  TIP3      2881            0.0000000000
     25994      3018  TIP3      OH2             5.8069508807        8.3710146052       14.1132957202  TIP3      2882            0.0000000000
     25995      3018  TIP3      H1              6.3253402741        8.4056316843       13.2794425783  TIP3      2882            0.0000000000
     25996      3018  TIP3      H2              6.0724953401        9.2153254504       14.5520852982  TIP3      2882            0.0000000000
     25997      3019  TIP3      OH2            12.7767149450       14.3512304084       14.6378567378  TIP3      2883            0.0000000000
     25998      3019  TIP3      H1             12.8130536656       15.1066381025       15.2646018843  TIP3      2883            0.0000000000
     25999      3019  TIP3      H2             12.2370032374       13.7085934536       15.1489414130  TIP3      2883            0.0000000000
     26000      3020  TIP3      OH2             7.0481982846       12.8122233765       18.6649678715  TIP3      2884            0.0000000000
     26001      3020  TIP3      H1              6.3683338576       13.4461702616       18.9921505461  TIP3      2884            0.0000000000
     26002      3020  TIP3      H2              6.6556851582       12.6020797162       17.7885961923  TIP3      2884            0.0000000000
     26003      3021  TIP3      OH2            13.4061784743        8.5341497925        6.4096753479  TIP3      2885            0.0000000000
     26004      3021  TIP3      H1             13.8554284079        8.6704716882        7.2812108842  TIP3      2885            0.0000000000
     26005      3021  TIP3      H2             13.8743670516        9.1516581455        5.8099711934  TIP3      2885            0.0000000000
     26006      3022  TIP3      OH2             4.3190972362        9.2775702354       17.6658356923  TIP3      2886            0.0000000000
     26007      3022  TIP3      H1              4.0593233453       10.1698766962       17.9323437451  TIP3      2886            0.0000000000
     26008      3022  TIP3      H2              3.4457621941        8.8545273640       17.5158875889  TIP3      2886            0.0000000000
     26009      3023  TIP3      OH2            10.2033124979       14.7349601546        9.2308787838  TIP3      2887            0.0000000000
     26010      3023  TIP3      H1             10.6585074508       15.3304980348        9.8239469007  TIP3      2887            0.0000000000
     26011      3023  TIP3      H2              9.8943853373       15.3211153718        8.5154884088  TIP3      2887            0.0000000000
     26012      3024  TIP3      OH2             5.4299849947       14.8407184133       19.4888171979  TIP3      2888            0.0000000000
     26013      3024  TIP3      H1              5.3602963062       15.2548633410       18.6019035628  TIP3      2888            0.0000000000
     26014      3024  TIP3      H2              4.4838484097       14.7690403781       19.7185370200  TIP3      2888            0.0000000000
     26015      3025  TIP3      OH2            16.8154380909        0.6180181459        6.3117667770  TIP3      2889            0.0000000000
     26016      3025  TIP3      H1             16.1017542035        1.2557638494        6.5115814563  TIP3      2889            0.0000000000
     26017      3025  TIP3      H2             17.5005710322        1.2344752449        5.9719086489  TIP3      2889            0.0000000000
     26018      3026  TIP3      OH2             4.8535272176        8.7745866322        8.0815157205  TIP3      2890            0.0000000000
     26019      3026  TIP3      H1              4.5991217202        9.6701428723        7.7610548684  TIP3      2890            0.0000000000
     26020      3026  TIP3      H2              4.1424923575        8.2476593975        7.7091430690  TIP3      2890            0.0000000000
     26021      3027  TIP3      OH2            18.3091826772       14.5008014636        4.4410087158  TIP3      2891            0.0000000000
     26022      3027  TIP3      H1             18.1648593416       15.3508658121        4.8873066902  TIP3      2891            0.0000000000
     26023      3027  TIP3      H2             18.9891753588       14.7416468811        3.7944468179  TIP3      2891            0.0000000000
     26024      3028  TIP3      OH2             1.4362583710       11.1029372116       17.1853534245  TIP3      2892            0.0000000000
     26025      3028  TIP3      H1              0.8299094229       11.1824106222       16.4283821655  TIP3      2892            0.0000000000
     26026      3028  TIP3      H2              1.5865237510       10.1345039085       17.2461205842  TIP3      2892            0.0000000000
     26027      3029  TIP3      OH2             0.6518121606       14.2693989113       13.5890985927  TIP3      2893            0.0000000000
     26028      3029  TIP3      H1              1.4904444439       13.8134280112       13.4187971200  TIP3      2893            0.0000000000
     26029      3029  TIP3      H2              0.8940156341       14.7556242956       14.4048926423  TIP3      2893            0.0000000000
     26030      3030  TIP3      OH2            18.5245658465       15.2198910063       19.0412922046  TIP3      2894            0.0000000000
     26031      3030  TIP3      H1             18.4351328193       14.2602928799       19.2324930380  TIP3      2894            0.0000000000
     26032      3030  TIP3      H2             17.6637613009       15.5618403231       19.3784306058  TIP3      2894            0.0000000000
     26033      3031  TIP3      OH2             9.8728887689       13.9873394215       18.1953213723  TIP3      2895            0.0000000000
     26034      3031  TIP3      H1              9.8817893639       14.8632722157       18.6315353757  TIP3      2895            0.0000000000
     26035      3031  TIP3      H2              8.9675893521       13.6541192951       18.3532138441  TIP3      2895            0.0000000000
     26036      3032  TIP3      OH2            10.1516765611       17.9887579625        7.6192774425  TIP3      2896            0.0000000000
     26037      3032  TIP3      H1             10.2137849714       18.0870436871        6.6455745297  TIP3      2896            0.0000000000
     26038      3032  TIP3      H2             10.1778730862       18.9121227441        7.9408319928  TIP3      2896            0.0000000000
     26039      3033  TIP3      OH2             4.5786790063       16.7394298684        9.8077845912  TIP3      2897            0.0000000000
     26040      3033  TIP3      H1              4.7505651824       16.4296980904       10.7279674475  TIP3      2897            0.0000000000
     26041      3033  TIP3      H2              3.9899569413       16.0250218254        9.4664831929  TIP3      2897            0.0000000000
     26042      3034  TIP3      OH2            13.5190911975       17.5314982613        4.5159024792  TIP3      2898            0.0000000000
     26043      3034  TIP3      H1             14.1185289696       16.8129654882        4.2391237902  TIP3      2898            0.0000000000
     26044      3034  TIP3      H2             14.0070549705       17.9701336005        5.2504425656  TIP3      2898            0.0000000000
     26045      3035  TIP3      OH2            12.9651286373       17.6251586844        8.2294648706  TIP3      2899            0.0000000000
     26046      3035  TIP3      H1             12.0088194841       17.5347459122        8.0644949789  TIP3      2899            0.0000000000
     26047      3035  TIP3      H2             13.0936506144       17.0550803859        9.0114802972  TIP3      2899            0.0000000000
     26048      3036  TIP3      OH2            16.2788132985        6.2827673929       19.4572055434  TIP3      2900            0.0000000000
     26049      3036  TIP3      H1             15.3840502843        6.5854184551       19.2259052946  TIP3      2900            0.0000000000
     26050      3036  TIP3      H2             16.2695990405        5.3566247805       19.1554471689  TIP3      2900            0.0000000000
     26051      3037  TIP3      OH2             3.4032500199       12.6892424265       18.0700189638  TIP3      2901            0.0000000000
     26052      3037  TIP3      H1              3.6055042038       12.3728608866       18.9835406007  TIP3      2901            0.0000000000
     26053      3037  TIP3      H2              2.5994518994       12.1352737167       17.8711252230  TIP3      2901            0.0000000000
     26054      3038  TIP3      OH2             6.1502483376        1.4313725225       13.6192337174  TIP3      2902            0.0000000000
     26055      3038  TIP3      H1              5.4127220170        1.8068490060       13.1092999294  TIP3      2902            0.0000000000
     26056      3038  TIP3      H2              5.9951497890        1.9170537787       14.4574924206  TIP3      2902            0.0000000000
     26057      3039  TIP3      OH2            10.5080905430        1.7272361547       16.9785840548  TIP3      2903            0.0000000000
     26058      3039  TIP3      H1             11.1461468267        1.1746190796       17.4438318125  TIP3      2903            0.0000000000
     26059      3039  TIP3      H2              9.6573665450        1.4207025408       17.3396974376  TIP3      2903            0.0000000000
     26060      3040  TIP3      OH2            13.6897566233        4.1889359974       18.1305813597  TIP3      2904            0.0000000000
     26061      3040  TIP3      H1             13.1006670521        3.9624837287       18.8877435890  TIP3      2904            0.0000000000
     26062      3040  TIP3      H2             13.7853661127        5.1523381003       18.2668012223  TIP3      2904            0.0000000000
     26063      3041  TIP3      OH2            14.6164067196        9.9519577122        4.4032490102  TIP3      2905            0.0000000000
     26064      3041  TIP3      H1             14.3479539939       10.0710316320        3.4885225595  TIP3      2905            0.0000000000
     26065      3041  TIP3      H2             15.5658861605       10.1731283771        4.3666070541  TIP3      2905            0.0000000000
     26066      3042  TIP3      OH2            10.3184137243        3.6581217352        4.7576582705  TIP3      2906            0.0000000000
     26067      3042  TIP3      H1              9.7720167797        3.3686337229        5.5122978386  TIP3      2906            0.0000000000
     26068      3042  TIP3      H2             10.4406453772        2.8334184166        4.2812144704  TIP3      2906            0.0000000000
     26069      3043  TIP3      OH2             6.0578328557        6.0257362295       15.2275166855  TIP3      2907            0.0000000000
     26070      3043  TIP3      H1              5.4028981637        6.1523454203       15.9402821183  TIP3      2907            0.0000000000
     26071      3043  TIP3      H2              6.0708077943        6.9397996724       14.8494799224  TIP3      2907            0.0000000000
     26072      3044  TIP3      OH2             6.0518668657        6.3884006931        9.8658038605  TIP3      2908            0.0000000000
     26073      3044  TIP3      H1              5.0741948065        6.3932416671        9.7979563323  TIP3      2908            0.0000000000
     26074      3044  TIP3      H2              6.2505734866        6.1417417608        8.9324814840  TIP3      2908            0.0000000000
     26075      3045  TIP3      OH2            11.8986277396        6.9564744930        8.8336934730  TIP3      2909            0.0000000000
     26076      3045  TIP3      H1             11.4605863082        7.6938847173        8.3392073972  TIP3      2909            0.0000000000
     26077      3045  TIP3      H2             12.5598008407        6.6956466858        8.1877373101  TIP3      2909            0.0000000000
     26078      3046  TIP3      OH2            10.3437825937        6.9115445390       20.0752472849  TIP3      2910            0.0000000000
     26079      3046  TIP3      H1              9.9337372948        6.1610328585       20.5541796314  TIP3      2910            0.0000000000
     26080      3046  TIP3      H2             11.0402406363        7.2140007293       20.6771739466  TIP3      2910            0.0000000000
     26081      3047  TIP3      OH2            11.8840736881        6.2917823017       12.0677667589  TIP3      2911            0.0000000000
     26082      3047  TIP3      H1             12.0835131904        7.2014702108       11.7716816804  TIP3      2911            0.0000000000
     26083      3047  TIP3      H2             12.2848361573        5.7555972745       11.3498562966  TIP3      2911            0.0000000000
     26084      3048  TIP3      OH2             3.2383119439        5.9930830667       16.2098562508  TIP3      2912            0.0000000000
     26085      3048  TIP3      H1              3.2245298694        6.2111840376       17.1510467963  TIP3      2912            0.0000000000
     26086      3048  TIP3      H2              3.1217546724        5.0137054384       16.2464302058  TIP3      2912            0.0000000000
     26087      3049  TIP3      OH2             6.9398013334        3.8396728553        3.9608669993  TIP3      2913            0.0000000000
     26088      3049  TIP3      H1              6.6150131571        3.2768150286        4.6902452351  TIP3      2913            0.0000000000
     26089      3049  TIP3      H2              6.6373669351        4.7175316592        4.2724433893  TIP3      2913            0.0000000000
     26090      3050  TIP3      OH2             1.4426903795        3.0205891730       10.2789657882  TIP3      2914            0.0000000000
     26091      3050  TIP3      H1              1.1843939778        2.5927132494       11.1153062752  TIP3      2914            0.0000000000
     26092      3050  TIP3      H2              2.2919287702        2.5821276216       10.0981412536  TIP3      2914            0.0000000000
     26093      3051  TIP3      OH2             2.0729558304        3.7682685634        6.2885691966  TIP3      2915            0.0000000000
     26094      3051  TIP3      H1              2.6607251445        4.0739845670        5.5736188284  TIP3      2915            0.0000000000
     26095      3051  TIP3      H2              1.2710194868        4.2670429243        6.0703115683  TIP3      2915            0.0000000000
     26096      3052  TIP3      OH2            11.5435376543        8.1455059732       15.8582270833  TIP3      2916            0.0000000000
     26097      3052  TIP3      H1             12.2760060023        7.7058259646       15.3807090770  TIP3      2916            0.0000000000
     26098      3052  TIP3      H2             11.0784263921        7.3818359011       16.2746261059  TIP3      2916            0.0000000000
     26099      3053  TIP3      OH2             8.8902071970        3.5963647677       10.8074271222  TIP3      2917            0.0000000000
     26100      3053  TIP3      H1              7.9294901394        3.4975878195       10.8152690222  TIP3      2917            0.0000000000
     26101      3053  TIP3      H2              9.1012485387        3.5333538882       11.7517869989  TIP3      2917            0.0000000000
     26102      3054  TIP3      OH2             3.4314612255        5.7468712946        9.8412583510  TIP3      2918            0.0000000000
     26103      3054  TIP3      H1              2.5295978747        5.8603991876        9.4898359713  TIP3      2918            0.0000000000
     26104      3054  TIP3      H2              3.6727373442        4.8719716652        9.4918180639  TIP3      2918            0.0000000000
     26105      3055  TIP3      OH2             6.3531284442        5.1319425491        7.5314349168  TIP3      2919            0.0000000000
     26106      3055  TIP3      H1              7.1417085288        4.6333619325        7.2354872999  TIP3      2919            0.0000000000
     26107      3055  TIP3      H2              6.1580151522        5.6411548815        6.7127795941  TIP3      2919            0.0000000000
     26108      3056  TIP3      OH2            13.4934866218        3.2195879689       13.7098579276  TIP3      2920            0.0000000000
     26109      3056  TIP3      H1             12.9105516466        3.2863596050       14.4914593126  TIP3      2920            0.0000000000
     26110      3056  TIP3      H2             12.8700518705        2.8248967543       13.0648019120  TIP3      2920            0.0000000000
     26111      3057  TIP3      OH2             5.9852840805        6.1499712600        5.1306607155  TIP3      2921            0.0000000000
     26112      3057  TIP3      H1              5.1353639461        6.2979412821        4.6725429651  TIP3      2921            0.0000000000
     26113      3057  TIP3      H2              6.5859367347        6.8017653394        4.7060736158  TIP3      2921            0.0000000000
     26114      3058  TIP3      OH2            15.7774640372       18.8464406112       20.6051468119  TIP3      2922            0.0000000000
     26115      3058  TIP3      H1             16.5517418896       19.1917045879       20.1378169255  TIP3      2922            0.0000000000
     26116      3058  TIP3      H2             15.8823066098       19.2134139803       21.5122681156  TIP3      2922            0.0000000000
     26117      3059  TIP3      OH2             3.4485664561       11.3946000184       20.4562328026  TIP3      2923            0.0000000000
     26118      3059  TIP3      H1              3.7351470848       10.8990774454       21.2346251528  TIP3      2923            0.0000000000
     26119      3059  TIP3      H2              2.4895422556       11.1612605461       20.4501809908  TIP3      2923            0.0000000000
     26120      3060  TIP3      OH2             9.2619598726        6.1854220699       12.6726122937  TIP3      2924            0.0000000000
     26121      3060  TIP3      H1             10.2060150273        5.9777288107       12.4534354412  TIP3      2924            0.0000000000
     26122      3060  TIP3      H2              9.1011684055        5.5976958431       13.4331018713  TIP3      2924            0.0000000000
     26123      3061  TIP3      OH2             4.7771005818        2.8428287376        9.0970362158  TIP3      2925            0.0000000000
     26124      3061  TIP3      H1              3.9972238802        2.3474731416        8.7892414588  TIP3      2925            0.0000000000
     26125      3061  TIP3      H2              5.4781528971        2.1768311062        8.9476270412  TIP3      2925            0.0000000000
     26126      3062  TIP3      OH2             8.4095368624        4.7959208920       15.0785101651  TIP3      2926            0.0000000000
     26127      3062  TIP3      H1              7.5757891546        5.3246447114       15.0666263770  TIP3      2926            0.0000000000
     26128      3062  TIP3      H2              8.9432683952        5.3008664370       15.7145937689  TIP3      2926            0.0000000000
     26129      3063  TIP3      OH2             9.0657093224       10.9823569633        7.3350883951  TIP3      2927            0.0000000000
     26130      3063  TIP3      H1              8.3132870085       10.5057100552        6.9087703596  TIP3      2927            0.0000000000
     26131      3063  TIP3      H2              8.5950203293       11.2890494013        8.1454064936  TIP3      2927            0.0000000000
     26132      3064  TIP3      OH2            16.5900708703       10.9522706786       15.8284215602  TIP3      2928            0.0000000000
     26133      3064  TIP3      H1             17.1264476952       11.5573010799       15.2544796454  TIP3      2928            0.0000000000
     26134      3064  TIP3      H2             15.8705578788       10.7274163825       15.2062390175  TIP3      2928            0.0000000000
     26135      3065  TIP3      OH2            12.8092543652        3.7241313659        5.8028868458  TIP3      2929            0.0000000000
     26136      3065  TIP3      H1             11.9717456297        3.9467778312        5.3434544131  TIP3      2929            0.0000000000
     26137      3065  TIP3      H2             13.3056351521        4.5724399115        5.6878435740  TIP3      2929            0.0000000000
     26138      3066  TIP3      OH2            10.1533154234       11.3609247537       18.2267844412  TIP3      2930            0.0000000000
     26139      3066  TIP3      H1              9.6481986014       11.1139749911       19.0149275156  TIP3      2930            0.0000000000
     26140      3066  TIP3      H2             10.3414423670       12.3103274877       18.3922837215  TIP3      2930            0.0000000000
     26141      3067  TIP3      OH2            14.0675613835        5.9489354700        6.4877320906  TIP3      2931            0.0000000000
     26142      3067  TIP3      H1             14.4289969788        6.1420105878        7.3662201855  TIP3      2931            0.0000000000
     26143      3067  TIP3      H2             13.9896151061        6.8515653223        6.1158730123  TIP3      2931            0.0000000000
     26144      3068  TIP3      OH2             3.9401676638       10.7381237090       12.6054589587  TIP3      2932            0.0000000000
     26145      3068  TIP3      H1              4.5433884731       10.4789185160       11.8785223485  TIP3      2932            0.0000000000
     26146      3068  TIP3      H2              3.8606400266        9.9365084075       13.1569587364  TIP3      2932            0.0000000000
     26147      3069  TIP3      OH2            11.1272203525       12.2907610919        6.1938575221  TIP3      2933            0.0000000000
     26148      3069  TIP3      H1             10.7181468847       13.1875469702        6.2609360102  TIP3      2933            0.0000000000
     26149      3069  TIP3      H2             10.3986188762       11.7334632932        6.5532277522  TIP3      2933            0.0000000000
     26150      3070  TIP3      OH2             1.5305851472        8.5043645368       17.7825740518  TIP3      2934            0.0000000000
     26151      3070  TIP3      H1              1.6495293722        8.0440244576       18.6342250469  TIP3      2934            0.0000000000
     26152      3070  TIP3      H2              0.5538516811        8.4884745241       17.7145715176  TIP3      2934            0.0000000000
     26153      3071  TIP3      OH2             8.0653806631        8.4598685239       19.6708494407  TIP3      2935            0.0000000000
     26154      3071  TIP3      H1              7.5306482569        7.8629084082       19.1206024326  TIP3      2935            0.0000000000
     26155      3071  TIP3      H2              8.9395027706        8.0163560653       19.6724054886  TIP3      2935            0.0000000000
     26156      3072  TIP3      OH2            12.9725074502       13.7329627299       18.4155831639  TIP3      2936            0.0000000000
     26157      3072  TIP3      H1             12.0501070133       13.8955262574       18.1448948757  TIP3      2936            0.0000000000
     26158      3072  TIP3      H2             13.1069827702       14.3723213503       19.1364679846  TIP3      2936            0.0000000000
     26159      3073  TIP3      OH2            18.0674924685        6.3300587847        7.0541498597  TIP3      2937            0.0000000000
     26160      3073  TIP3      H1             17.7677902951        5.9431986361        6.2099925440  TIP3      2937            0.0000000000
     26161      3073  TIP3      H2             18.4713802935        7.1420099537        6.6725778737  TIP3      2937            0.0000000000
     26162      3074  TIP3      OH2            18.7985022635       12.5927555652       19.0158017294  TIP3      2938            0.0000000000
     26163      3074  TIP3      H1             17.8436918482       12.4312441705       18.8480423612  TIP3      2938            0.0000000000
     26164      3074  TIP3      H2             19.1696069885       12.3669841465       18.1349572583  TIP3      2938            0.0000000000
     26165      3075  TIP3      OH2            16.6884203673       14.6928428689        7.1524141143  TIP3      2939            0.0000000000
     26166      3075  TIP3      H1             16.0732836159       14.0980922643        7.6077620131  TIP3      2939            0.0000000000
     26167      3075  TIP3      H2             16.5655655913       14.4490800267        6.2288721721  TIP3      2939            0.0000000000
     26168      3076  TIP3      OH2            13.8912743754        9.6422194623       13.8157953406  TIP3      2940            0.0000000000
     26169      3076  TIP3      H1             12.9618968918        9.4636247274       13.5811774768  TIP3      2940            0.0000000000
     26170      3076  TIP3      H2             14.3436121073        8.9154292117       13.3394020076  TIP3      2940            0.0000000000
     26171      3077  TIP3      OH2             6.5995069700       13.9689925081       10.3076857386  TIP3      2941            0.0000000000
     26172      3077  TIP3      H1              6.8702689746       14.8920762371       10.1428905584  TIP3      2941            0.0000000000
     26173      3077  TIP3      H2              5.8513577380       13.8848716896        9.7019152221  TIP3      2941            0.0000000000
     26174      3078  TIP3      OH2             1.7669943001        9.1685989160        5.2014474483  TIP3      2942            0.0000000000
     26175      3078  TIP3      H1              2.3959200441        9.6498805922        4.6340619076  TIP3      2942            0.0000000000
     26176      3078  TIP3      H2              1.4996809783        9.8949511913        5.7891327947  TIP3      2942            0.0000000000
     26177      3079  TIP3      OH2             7.6430267199       11.5903549330        9.5086851738  TIP3      2943            0.0000000000
     26178      3079  TIP3      H1              7.4247694960       12.5006366811        9.8032937518  TIP3      2943            0.0000000000
     26179      3079  TIP3      H2              7.0800703873       11.0326210515       10.0832099362  TIP3      2943            0.0000000000
     26180      3080  TIP3      OH2             8.2184020714       16.1398295522       16.5808893908  TIP3      2944            0.0000000000
     26181      3080  TIP3      H1              8.9642230328       16.6240001229       16.1696815076  TIP3      2944            0.0000000000
     26182      3080  TIP3      H2              8.6867392812       15.7797189251       17.3572557702  TIP3      2944            0.0000000000
     26183      3081  TIP3      OH2             7.1288024530       16.4309724388        8.9380569081  TIP3      2945            0.0000000000
     26184      3081  TIP3      H1              6.1859427840       16.6189087386        9.1516893815  TIP3      2945            0.0000000000
     26185      3081  TIP3      H2              7.5375797613       17.2221910306        9.3528077336  TIP3      2945            0.0000000000
     26186      3082  TIP3      OH2            11.4348681214       11.9728620566       15.6073877738  TIP3      2946            0.0000000000
     26187      3082  TIP3      H1             11.1928193212       11.5642767419       16.4687044506  TIP3      2946            0.0000000000
     26188      3082  TIP3      H2             11.9307260657       11.2515908181       15.1775995531  TIP3      2946            0.0000000000
     26189      3083  TIP3      OH2            14.3103011821       13.1255397571        5.1630072508  TIP3      2947            0.0000000000
     26190      3083  TIP3      H1             14.5831734890       12.6345009021        5.9663944084  TIP3      2947            0.0000000000
     26191      3083  TIP3      H2             13.4824392447       12.6692294214        4.9620268107  TIP3      2947            0.0000000000
     26192      3084  TIP3      OH2            14.5955329429       16.5644732489       17.8280257835  TIP3      2948            0.0000000000
     26193      3084  TIP3      H1             13.7848709542       16.0645948353       17.5999874480  TIP3      2948            0.0000000000
     26194      3084  TIP3      H2             14.6691490107       17.1417891585       17.0364056957  TIP3      2948            0.0000000000
     26195      3085  TIP3      OH2            18.6009971483       17.4550479684        5.0018616227  TIP3      2949            0.0000000000
     26196      3085  TIP3      H1             19.1693487084       18.1713625948        4.6785902688  TIP3      2949            0.0000000000
     26197      3085  TIP3      H2             18.0068684145       17.9443102746        5.6190316848  TIP3      2949            0.0000000000
     26198      3086  TIP3      OH2             2.7021127328        3.4968856830       16.8683905858  TIP3      2950            0.0000000000
     26199      3086  TIP3      H1              2.3223999973        3.9879978350       17.6430542111  TIP3      2950            0.0000000000
     26200      3086  TIP3      H2              2.0625426556        2.7483892679       16.8755714448  TIP3      2950            0.0000000000
     26201      3087  TIP3      OH2            14.9986561253       11.4732469283        7.3917718631  TIP3      2951            0.0000000000
     26202      3087  TIP3      H1             14.8883231427       10.5582433509        7.7196200019  TIP3      2951            0.0000000000
     26203      3087  TIP3      H2             15.9715771800       11.5086353609        7.2789248787  TIP3      2951            0.0000000000
     26204      3088  TIP3      OH2             2.2431714462       15.0223067205       15.8308746065  TIP3      2952            0.0000000000
     26205      3088  TIP3      H1              2.9799456672       14.4901100896       16.1700731725  TIP3      2952            0.0000000000
     26206      3088  TIP3      H2              2.4171571456       15.8768001745       16.2519884373  TIP3      2952            0.0000000000
     26207      3089  TIP3      OH2             7.1123184074       13.4741971393        5.9653546667  TIP3      2953            0.0000000000
     26208      3089  TIP3      H1              7.5386434113       13.0747988212        6.7318873449  TIP3      2953            0.0000000000
     26209      3089  TIP3      H2              7.2967319312       14.4298071234        6.1035545724  TIP3      2953            0.0000000000
     26210      3090  TIP3      OH2             4.1978934691       11.1678695809        6.6313369680  TIP3      2954            0.0000000000
     26211      3090  TIP3      H1              3.4725683086       11.6062277060        7.1245333260  TIP3      2954            0.0000000000
     26212      3090  TIP3      H2              4.3952278015       11.8419255377        5.9580558529  TIP3      2954            0.0000000000
     26213      3091  TIP3      OH2            11.8554516124        3.8817015235       16.1948051785  TIP3      2955            0.0000000000
     26214      3091  TIP3      H1             12.5799050193        3.8583341945       16.8531780224  TIP3      2955            0.0000000000
     26215      3091  TIP3      H2             11.3126176120        3.1197454648       16.5043223769  TIP3      2955            0.0000000000
     26216      3092  TIP3      OH2            12.2076054296        3.2414497617        8.3512951408  TIP3      2956            0.0000000000
     26217      3092  TIP3      H1             12.3844944707        3.5466586474        7.4309332421  TIP3      2956            0.0000000000
     26218      3092  TIP3      H2             11.5801312228        3.9332593925        8.6502719117  TIP3      2956            0.0000000000
     26219      3093  TIP3      OH2            10.1541925407       14.8388201322        6.2741939309  TIP3      2957            0.0000000000
     26220      3093  TIP3      H1              9.2953142450       15.2957189651        6.2018980722  TIP3      2957            0.0000000000
     26221      3093  TIP3      H2             10.6598343823       15.2783695614        5.5761661411  TIP3      2957            0.0000000000
     26222      3094  TIP3      OH2            10.1282783780        4.8200904504        8.8024196342  TIP3      2958            0.0000000000
     26223      3094  TIP3      H1             10.4634949074        5.7360604279        8.8887348364  TIP3      2958            0.0000000000
     26224      3094  TIP3      H2              9.6722838895        4.6672295542        9.6645910223  TIP3      2958            0.0000000000
     26225      3095  TIP3      OH2            10.4206709102        6.1212907301       17.2186582637  TIP3      2959            0.0000000000
     26226      3095  TIP3      H1             10.4702445612        6.3187720794       18.1828874674  TIP3      2959            0.0000000000
     26227      3095  TIP3      H2             10.7081086500        5.1902657371       17.1390547720  TIP3      2959            0.0000000000
     26228      3096  TIP3      OH2            10.4084481655        1.4475842856        9.3932112510  TIP3      2960            0.0000000000
     26229      3096  TIP3      H1              9.7792647955        2.0871769869        9.7687184324  TIP3      2960            0.0000000000
     26230      3096  TIP3      H2             11.0569025549        2.0634480652        8.9970645239  TIP3      2960            0.0000000000
     26231      3097  TIP3      OH2             7.6630319532       16.1061258576        6.1782824707  TIP3      2961            0.0000000000
     26232      3097  TIP3      H1              8.0362794182       16.9278030839        5.8020681850  TIP3      2961            0.0000000000
     26233      3097  TIP3      H2              7.3822517031       16.4210756568        7.0681208934  TIP3      2961            0.0000000000
     26234      3098  TIP3      OH2             5.5573216420        2.5564573975        6.1926083338  TIP3      2962            0.0000000000
     26235      3098  TIP3      H1              5.4855957054        3.2940879789        6.8327818196  TIP3      2962            0.0000000000
     26236      3098  TIP3      H2              6.2788520892        2.0437281457        6.5934362965  TIP3      2962            0.0000000000
     26237      3099  TIP3      OH2            16.2166171079        3.4926566250       18.6403172569  TIP3      2963            0.0000000000
     26238      3099  TIP3      H1             15.2403582701        3.5073032700       18.5355800041  TIP3      2963            0.0000000000
     26239      3099  TIP3      H2             16.4265809522        3.3819676287       17.6852696551  TIP3      2963            0.0000000000
     26240      3100  TIP3      OH2            14.6739594333        7.2994996737       12.5098452877  TIP3      2964            0.0000000000
     26241      3100  TIP3      H1             14.0786319670        6.9395145780       13.2057142229  TIP3      2964            0.0000000000
     26242      3100  TIP3      H2             15.5391697862        7.0250366284       12.9151607877  TIP3      2964            0.0000000000
     26243      3101  TIP3      OH2             4.3033380537       13.3684456294        4.8522163587  TIP3      2965            0.0000000000
     26244      3101  TIP3      H1              5.2122048622       13.6244478569        5.0759843132  TIP3      2965            0.0000000000
     26245      3101  TIP3      H2              4.4076396698       13.0532438185        3.9441092499  TIP3      2965            0.0000000000
     26246      3102  TIP3      OH2             3.1571570791        6.0249881679        4.2749710959  TIP3      2966            0.0000000000
     26247      3102  TIP3      H1              2.6135275572        6.7659549643        4.5749533129  TIP3      2966            0.0000000000
     26248      3102  TIP3      H2              2.9672854107        6.0130953160        3.3234210550  TIP3      2966            0.0000000000
     26249      3103  TIP3      OH2            15.7526116606       16.5030533906       13.8779723292  TIP3      2967            0.0000000000
     26250      3103  TIP3      H1             15.8814041821       17.0676776823       13.0991194995  TIP3      2967            0.0000000000
     26251      3103  TIP3      H2             16.6922739339       16.4101620125       14.1528201694  TIP3      2967            0.0000000000
     26252      3104  TIP3      OH2             3.2901638823        1.0528392352       12.7445941570  TIP3      2968            0.0000000000
     26253      3104  TIP3      H1              3.7710094627        0.5025712056       12.1001815655  TIP3      2968            0.0000000000
     26254      3104  TIP3      H2              3.0554657222        0.3430271085       13.3807785024  TIP3      2968            0.0000000000
     26255      3105  TIP3      OH2             2.7360120050       14.9350045178        9.1667175663  TIP3      2969            0.0000000000
     26256      3105  TIP3      H1              2.0275169332       15.4345602577        9.6028267853  TIP3      2969            0.0000000000
     26257      3105  TIP3      H2              2.6534948383       15.2700907710        8.2471997045  TIP3      2969            0.0000000000
     26258      3106  TIP3      OH2             0.8523790412       17.4534556070       20.0314093354  TIP3      2970            0.0000000000
     26259      3106  TIP3      H1              1.8079111763       17.3377399004       19.9202547149  TIP3      2970            0.0000000000
     26260      3106  TIP3      H2              0.5584249837       16.5300548481       20.1333325326  TIP3      2970            0.0000000000
     26261      3107  TIP3      OH2             6.4621002118       16.4227723654       21.7431958449  TIP3      2971            0.0000000000
     26262      3107  TIP3      H1              7.2538305499       15.9988859934       22.0921524330  TIP3      2971            0.0000000000
     26263      3107  TIP3      H2              6.2282826220       15.8309038168       21.0031028655  TIP3      2971            0.0000000000
     26264      3108  TIP3      OH2            12.3513616708       15.0174912199       20.7278393590  TIP3      2972            0.0000000000
     26265      3108  TIP3      H1             12.0110115323       14.1057221283       20.9247255237  TIP3      2972            0.0000000000
     26266      3108  TIP3      H2             13.1816287082       15.0271629090       21.2529291836  TIP3      2972            0.0000000000
     26267      3109  TIP3      OH2            15.2258551721       15.2681706827        3.2750077358  TIP3      2973            0.0000000000
     26268      3109  TIP3      H1             14.9553208282       14.6076807411        3.9456541525  TIP3      2973            0.0000000000
     26269      3109  TIP3      H2             16.0457653637       14.8740254795        2.9301685979  TIP3      2973            0.0000000000
     26270      3110  TIP3      OH2             0.8552031895       10.9603985458       20.7869816711  TIP3      2974            0.0000000000
     26271      3110  TIP3      H1              0.6871844241       10.0411505239       21.0324735391  TIP3      2974            0.0000000000
     26272      3110  TIP3      H2             -0.0321320459       11.2421506628       20.4865316343  TIP3      2974            0.0000000000
     26273      3111  TIP3      OH2             6.0704804972       11.7950333122        3.1006797865  TIP3      2975            0.0000000000
     26274      3111  TIP3      H1              6.2541253420       11.5015086766        4.0100548265  TIP3      2975            0.0000000000
     26275      3111  TIP3      H2              6.3622728534       11.0094532088        2.5800494723  TIP3      2975            0.0000000000
     26276      3112  TIP3      OH2             8.1462069533       11.0397594507       20.4135780121  TIP3      2976            0.0000000000
     26277      3112  TIP3      H1              7.8915827255       11.5481952194       19.6099146356  TIP3      2976            0.0000000000
     26278      3112  TIP3      H2              7.8492126595       10.1242969802       20.2106702710  TIP3      2976            0.0000000000
     26279      3113  TIP3      OH2            13.6175931710       11.1223609906       18.0911737413  TIP3      2977            0.0000000000
     26280      3113  TIP3      H1             14.5412537055       11.4136920435       17.9852709827  TIP3      2977            0.0000000000
     26281      3113  TIP3      H2             13.2297743635       12.0075430687       18.2687077409  TIP3      2977            0.0000000000
     26282      3114  TIP3      OH2             2.3597767676        7.3568324589       20.4962935067  TIP3      2978            0.0000000000
     26283      3114  TIP3      H1              3.1458118822        6.8071660328       20.6936332690  TIP3      2978            0.0000000000
     26284      3114  TIP3      H2              2.5503135696        8.1099225873       21.0878587580  TIP3      2978            0.0000000000
     26285      3115  TIP3      OH2             7.1003998855        9.5205225615        6.3037828564  TIP3      2979            0.0000000000
     26286      3115  TIP3      H1              6.2979758189        9.1705963733        6.7294316281  TIP3      2979            0.0000000000
     26287      3115  TIP3      H2              7.3371487938        8.8376890762        5.6386575919  TIP3      2979            0.0000000000
     26288      3116  TIP3      OH2             6.0810401826        7.3358261300       17.6732305831  TIP3      2980            0.0000000000
     26289      3116  TIP3      H1              5.5186719631        8.1160989817       17.8670958598  TIP3      2980            0.0000000000
     26290      3116  TIP3      H2              6.7803440057        7.7525858544       17.1163395051  TIP3      2980            0.0000000000
     26291      3117  TIP3      OH2             7.9187274487        7.7474868373        4.3286786007  TIP3      2981            0.0000000000
     26292      3117  TIP3      H1              7.9471019787        7.7557591690        3.3581184255  TIP3      2981            0.0000000000
     26293      3117  TIP3      H2              8.8728690691        7.7376835890        4.5499043246  TIP3      2981            0.0000000000
     26294      3118  TIP3      OH2            11.7053983845       10.1741169543       21.4187748753  TIP3      2982            0.0000000000
     26295      3118  TIP3      H1             12.5865672733       10.0611146791       21.0042389612  TIP3      2982            0.0000000000
     26296      3118  TIP3      H2             11.6313444465        9.3434634685       21.9112191386  TIP3      2982            0.0000000000
     26297      3119  TIP3      OH2            17.1693846178       10.2632370816        3.1335394560  TIP3      2983            0.0000000000
     26298      3119  TIP3      H1             16.6504660391       10.3682567919        2.3187291513  TIP3      2983            0.0000000000
     26299      3119  TIP3      H2             17.5228293026       11.1574409940        3.2531667767  TIP3      2983            0.0000000000
     26300      3120  TIP3      OH2             6.1751705624        5.2237696582       19.2083825396  TIP3      2984            0.0000000000
     26301      3120  TIP3      H1              6.4241355436        4.5609538893       18.5309985793  TIP3      2984            0.0000000000
     26302      3120  TIP3      H2              6.0318340558        6.0117320869       18.6193973748  TIP3      2984            0.0000000000
     26303      3121  TIP3      OH2             6.9266686093        3.4089003558       16.9942089874  TIP3      2985            0.0000000000
     26304      3121  TIP3      H1              7.5611445841        3.7578893676       16.3233090493  TIP3      2985            0.0000000000
     26305      3121  TIP3      H2              6.0962969921        3.4477430577       16.4817951965  TIP3      2985            0.0000000000
     26306      3122  TIP3      OH2             8.1047364202        8.5620126331       16.3550277856  TIP3      2986            0.0000000000
     26307      3122  TIP3      H1              9.0604658731        8.7251772063       16.4435060180  TIP3      2986            0.0000000000
     26308      3122  TIP3      H2              7.7423177713        9.4342591354       16.0939695590  TIP3      2986            0.0000000000
     26309      3123  TIP3      OH2            14.0602954181        9.2946930181       20.1295601034  TIP3      2987            0.0000000000
     26310      3123  TIP3      H1             13.7884310499        9.8858161188       19.3856337136  TIP3      2987            0.0000000000
     26311      3123  TIP3      H2             15.0309898528        9.3215707233       20.0867966229  TIP3      2987            0.0000000000
     26312      3124  TIP3      OH2             4.6173199058        6.0932794307       21.1888665321  TIP3      2988            0.0000000000
     26313      3124  TIP3      H1              4.2052012622        5.2151958655       21.3573410595  TIP3      2988            0.0000000000
     26314      3124  TIP3      H2              5.2047483213        5.8422958134       20.4361414240  TIP3      2988            0.0000000000
     26315      3125  TIP3      OH2             7.4556743926        0.8152609474       17.0546386671  TIP3      2989            0.0000000000
     26316      3125  TIP3      H1              7.2395692801        1.7765199736       17.0488582955  TIP3      2989            0.0000000000
     26317      3125  TIP3      H2              6.5835816775        0.3891527622       16.9280402021  TIP3      2989            0.0000000000
     26318      3126  TIP3      OH2             8.5411926825        5.0897145819       21.0488465469  TIP3      2990            0.0000000000
     26319      3126  TIP3      H1              8.2929668825        5.8695121806       21.5937161565  TIP3      2990            0.0000000000
     26320      3126  TIP3      H2              7.7822405003        5.0205697781       20.4452432794  TIP3      2990            0.0000000000
     26321      3127  TIP3      OH2            11.7737592121        3.7497526542       19.9360485392  TIP3      2991            0.0000000000
     26322      3127  TIP3      H1             10.8417608746        3.5140237599       20.0512448617  TIP3      2991            0.0000000000
     26323      3127  TIP3      H2             11.9862469366        4.0884208543       20.8212515749  TIP3      2991            0.0000000000
     26324      3128  TIP3      OH2            13.9163192804        2.3775819125       21.8169942030  TIP3      2992            0.0000000000
     26325      3128  TIP3      H1             13.4512396325        1.5408141457       22.0004731943  TIP3      2992            0.0000000000
     26326      3128  TIP3      H2             13.4641808603        3.0219758403       22.4068673038  TIP3      2992            0.0000000000
     26327      3129  TIP3      OH2             2.8567125618        3.8921341264       21.3761393382  TIP3      2993            0.0000000000
     26328      3129  TIP3      H1              2.9926705976        2.9883289694       20.9992893820  TIP3      2993            0.0000000000
     26329      3129  TIP3      H2              2.1473602210        3.7043648213       22.0197600960  TIP3      2993            0.0000000000
     26330      3130  TIP3      OH2             8.3194219490        1.0260295910       19.5853406838  TIP3      2994            0.0000000000
     26331      3130  TIP3      H1              8.1518086117        0.1184220853       19.8916135683  TIP3      2994            0.0000000000
     26332      3130  TIP3      H2              7.9848143482        0.9453451828       18.6642328107  TIP3      2994            0.0000000000
     26333      3131  TIP3      OH2             8.2372533128        1.4367701117       22.2908376624  TIP3      2995            0.0000000000
     26334      3131  TIP3      H1              8.5947648141        1.0072816737       21.5010248649  TIP3      2995            0.0000000000
     26335      3131  TIP3      H2              7.9571426866        2.2537538057       21.8653037739  TIP3      2995            0.0000000000
     26336      3132  TIP3      OH2             8.1856112178       18.6154370143        4.7735660801  TIP3      2996            0.0000000000
     26337      3132  TIP3      H1              9.1556731341       18.5443253827        4.8689688428  TIP3      2996            0.0000000000
     26338      3132  TIP3      H2              8.0892276139       18.5666541755        3.8012231209  TIP3      2996            0.0000000000
     26339      3133  TIP3      OH2             1.6319667823       11.9066849383        4.1057281630  TIP3      2997            0.0000000000
     26340      3133  TIP3      H1              1.8684312825       12.2178760549        4.9982684814  TIP3      2997            0.0000000000
     26341      3133  TIP3      H2              0.8984346906       12.4890826451        3.8665135335  TIP3      2997            0.0000000000
     26342      3134  TIP3      OH2            66.4491651355       18.1572517220        9.0181278062  TIP3      2998            0.0000000000
     26343      3134  TIP3      H1             65.5887814410       17.7708725538        9.2123536850  TIP3      2998            0.0000000000
     26344      3134  TIP3      H2             66.9704169538       17.8252517969        9.7684996439  TIP3      2998            0.0000000000
     26345      3135  TIP3      OH2             1.3202501627       16.6901554887       11.1606550838  TIP3      2999            0.0000000000
     26346      3135  TIP3      H1              0.7391540471       15.9881248173       11.4948641195  TIP3      2999            0.0000000000
     26347      3135  TIP3      H2              1.6292568947       17.1151844143       11.9841470608  TIP3      2999            0.0000000000
     26348      3136  TIP3      OH2            18.3859564948       16.6053208878       14.2610159303  TIP3      3000            0.0000000000
     26349      3136  TIP3      H1             18.7187267440       17.2097057834       14.9460235167  TIP3      3000            0.0000000000
     26350      3136  TIP3      H2             18.7952577884       16.9909797456       13.4687053828  TIP3      3000            0.0000000000
     26351      3137  TIP3      OH2            17.8262949305       16.9135396386       17.0525958754  TIP3      3001            0.0000000000
     26352      3137  TIP3      H1             17.5668869841       16.1568078397       16.4923127048  TIP3      3001            0.0000000000
     26353      3137  TIP3      H2             18.2610036649       16.4196027370       17.7795166089  TIP3      3001            0.0000000000
     26354      3138  TIP3      OH2            17.0690648990       12.7122629121       21.9623072587  TIP3      3002            0.0000000000
     26355      3138  TIP3      H1             16.1100896198       12.7695824475       22.0953975145  TIP3      3002            0.0000000000
     26356      3138  TIP3      H2             17.3381689387       13.6307486176       22.1920098211  TIP3      3002            0.0000000000
     26357      3139  TIP3      OH2            17.6657862939       11.0219807744        7.1193930443  TIP3      3003            0.0000000000
     26358      3139  TIP3      H1             18.4791139502       11.5414150832        7.3163923093  TIP3      3003            0.0000000000
     26359      3139  TIP3      H2             17.6666923416       10.4100209254        7.8863358590  TIP3      3003            0.0000000000
     26360      3140  TIP3      OH2            18.1102948528        9.2773375859        9.3012263859  TIP3      3004            0.0000000000
     26361      3140  TIP3      H1             17.3927504789        8.7158287656        9.6779270581  TIP3      3004            0.0000000000
     26362      3140  TIP3      H2             18.6795870844        9.3015238014       10.0997276683  TIP3      3004            0.0000000000
     26363      3141  TIP3      OH2            18.2320046701       11.9401360076       14.0254520797  TIP3      3005            0.0000000000
     26364      3141  TIP3      H1             18.7957062230       11.1832027809       13.7537536796  TIP3      3005            0.0000000000
     26365      3141  TIP3      H2             18.7452356581       12.7122680391       13.7317273302  TIP3      3005            0.0000000000
     26366      3142  TIP3      OH2            16.4829081779       14.5374884037       16.4135064935  TIP3      3006            0.0000000000
     26367      3142  TIP3      H1             15.8699182950       15.2002444217       16.7753551811  TIP3      3006            0.0000000000
     26368      3142  TIP3      H2             16.0607844315       14.2550415864       15.5696381874  TIP3      3006            0.0000000000
     26369      3143  TIP3      OH2            18.8349606683        8.6474296948        5.6254342072  TIP3      3007            0.0000000000
     26370      3143  TIP3      H1             18.1134937427        8.6858983506        4.9762701223  TIP3      3007            0.0000000000
     26371      3143  TIP3      H2             18.6082678293        9.4131343994        6.1860155982  TIP3      3007            0.0000000000
     26372      3144  TIP3      OH2            17.8268334643        6.1893996209        4.0305351036  TIP3      3008            0.0000000000
     26373      3144  TIP3      H1             17.9491517577        6.8292534506        3.2899641120  TIP3      3008            0.0000000000
     26374      3144  TIP3      H2             17.1417712236        5.6116756474        3.6702444732  TIP3      3008            0.0000000000
     26375      3145  TIP3      OH2            16.4179725609        7.6022804986       10.4679957983  TIP3      3009            0.0000000000
     26376      3145  TIP3      H1             16.1130773130        6.7000430308       10.2519914985  TIP3      3009            0.0000000000
     26377      3145  TIP3      H2             15.9391526621        7.7120630017       11.3123811782  TIP3      3009            0.0000000000
     26378      3146  TIP3      OH2             0.6877110883        9.0631615755       14.0205678265  TIP3      3010            0.0000000000
     26379      3146  TIP3      H1              0.7953195012        9.0554380653       13.0465599696  TIP3      3010            0.0000000000
     26380      3146  TIP3      H2              1.6449328064        9.0429922919       14.2650599148  TIP3      3010            0.0000000000
     26381      3147  TIP3      OH2            17.2466981532        9.3612522201       19.3518882790  TIP3      3011            0.0000000000
     26382      3147  TIP3      H1             17.6310949932        8.5316659137       19.7378023167  TIP3      3011            0.0000000000
     26383      3147  TIP3      H2             17.9762010734        9.5828107122       18.7444018776  TIP3      3011            0.0000000000
     26384      3148  TIP3      OH2            18.6543370250        7.2226274706       20.0735722397  TIP3      3012            0.0000000000
     26385      3148  TIP3      H1             17.8505246185        6.6704505176       19.9268426375  TIP3      3012            0.0000000000
     26386      3148  TIP3      H2             19.3162297950        6.5007222057       20.1750239529  TIP3      3012            0.0000000000
     26387      3149  TIP3      OH2            15.5905169322        5.6453622503        8.8822571517  TIP3      3013            0.0000000000
     26388      3149  TIP3      H1             15.8995715982        4.7243418189        8.7029532067  TIP3      3013            0.0000000000
     26389      3149  TIP3      H2             16.2377860771        6.1458904320        8.3550166293  TIP3      3013            0.0000000000
     26390      3150  TIP3      OH2            16.7634314128        6.1946766195       13.6339003091  TIP3      3014            0.0000000000
     26391      3150  TIP3      H1             17.7212481563        6.2615584523       13.8758169076  TIP3      3014            0.0000000000
     26392      3150  TIP3      H2             16.4681305302        5.5878324662       14.3286214457  TIP3      3014            0.0000000000
     26393      3151  TIP3      OH2            16.9390338674        6.5764952223       16.4989135202  TIP3      3015            0.0000000000
     26394      3151  TIP3      H1             16.1215488465        6.9474884933       16.8530558049  TIP3      3015            0.0000000000
     26395      3151  TIP3      H2             17.3921788099        7.3722321125       16.1396723607  TIP3      3015            0.0000000000
     26396      3152  TIP3      OH2             1.5583981375        4.7017450574       18.9684284450  TIP3      3016            0.0000000000
     26397      3152  TIP3      H1              2.1202279397        4.6176650426       19.7650676257  TIP3      3016            0.0000000000
     26398      3152  TIP3      H2              0.6751208948        4.7739034519       19.3679614464  TIP3      3016            0.0000000000
     26399      3153  TIP3      OH2            16.5901308973        3.2248631671        8.5726009695  TIP3      3017            0.0000000000
     26400      3153  TIP3      H1             16.9139128761        2.7431502706        9.3672929176  TIP3      3017            0.0000000000
     26401      3153  TIP3      H2             16.9430127674        2.6228854330        7.8901453207  TIP3      3017            0.0000000000
     26402      3154  TIP3      OH2             1.7667510369        3.6599801389       13.5112489446  TIP3      3018            0.0000000000
     26403      3154  TIP3      H1              2.1308545882        2.7860586831       13.7257181338  TIP3      3018            0.0000000000
     26404      3154  TIP3      H2              2.6014054412        4.1720554638       13.4816003590  TIP3      3018            0.0000000000
     26405      3155  TIP3      OH2             0.3930131483        5.7729811753       15.0539736976  TIP3      3019            0.0000000000
     26406      3155  TIP3      H1              1.0029360442        5.2451998562       14.4918113692  TIP3      3019            0.0000000000
     26407      3155  TIP3      H2              1.0006613303        6.2000208917       15.6806590181  TIP3      3019            0.0000000000
     26408      3156  TIP3      OH2            17.9760745157        1.9097707083       20.0723741289  TIP3      3020            0.0000000000
     26409      3156  TIP3      H1             17.3475499844        2.2439592215       19.3932112219  TIP3      3020            0.0000000000
     26410      3156  TIP3      H2             18.8183150385        2.0700454277       19.6267172371  TIP3      3020            0.0000000000
     26411      3157  TIP3      OH2            18.5488610983        2.3044957611        4.7796916137  TIP3      3021            0.0000000000
     26412      3157  TIP3      H1             19.1203890034        1.5512838513        4.5437529337  TIP3      3021            0.0000000000
     26413      3157  TIP3      H2             19.0762198076        3.0521360477        4.4728907411  TIP3      3021            0.0000000000
     26414      3158  TIP3      OH2             0.2988598221        2.2430026100        7.8824498931  TIP3      3022            0.0000000000
     26415      3158  TIP3      H1              0.6937487143        2.3432900177        8.7695986816  TIP3      3022            0.0000000000
     26416      3158  TIP3      H2              0.9713144691        2.6869968840        7.3191274898  TIP3      3022            0.0000000000
     26417      3159  TIP3      OH2            15.5630265577       17.5528517424       10.1741673843  TIP3      3023            0.0000000000
     26418      3159  TIP3      H1             16.3983199555       17.4012025039        9.6818682639  TIP3      3023            0.0000000000
     26419      3159  TIP3      H2             15.8655999742       18.0778920224       10.9394580310  TIP3      3023            0.0000000000
     26420      3160  TIP3      OH2             0.4860261621        1.7921213785       16.1761851279  TIP3      3024            0.0000000000
     26421      3160  TIP3      H1             -0.2429476827        1.5012811237       16.7364848109  TIP3      3024            0.0000000000
     26422      3160  TIP3      H2              0.1111237380        1.8048516721       15.2805081154  TIP3      3024            0.0000000000
     26423      3161  TIP3      OH2             2.6274339313       14.5292939746       20.3642438540  TIP3      3025            0.0000000000
     26424      3161  TIP3      H1              2.3889638714       13.7999720790       19.7683474334  TIP3      3025            0.0000000000
     26425      3161  TIP3      H2              2.8086498909       14.0803446152       21.2084638928  TIP3      3025            0.0000000000
     26426      3162  TIP3      OH2             5.4930988162       15.7571771855       16.8790716645  TIP3      3026            0.0000000000
     26427      3162  TIP3      H1              5.3639412970       16.6802029397       16.5576921290  TIP3      3026            0.0000000000
     26428      3162  TIP3      H2              6.4573980576       15.6619497441       16.7156377179  TIP3      3026            0.0000000000
     26429      3163  TIP3      OH2             9.7495064584       16.4616584061       19.2225641836  TIP3      3027            0.0000000000
     26430      3163  TIP3      H1              9.7895185603       16.4696274096       20.2032674810  TIP3      3027            0.0000000000
     26431      3163  TIP3      H2             10.5736483183       16.9652755273       19.0095202279  TIP3      3027            0.0000000000
     26432      3164  TIP3      OH2            11.8057567082       17.9809960611       18.6011911191  TIP3      3028            0.0000000000
     26433      3164  TIP3      H1             12.5896628913       17.9392934022       18.0395426299  TIP3      3028            0.0000000000
     26434      3164  TIP3      H2             12.2323624226       18.1092778364       19.4909535117  TIP3      3028            0.0000000000
     26435      3165  TIP3      OH2            16.8717801398        0.6532464739       17.4638620094  TIP3      3029            0.0000000000
     26436      3165  TIP3      H1             16.0226106699        1.0248233576       17.7424770695  TIP3      3029            0.0000000000
     26437      3165  TIP3      H2             16.6434217553        0.0002970417       16.7833609582  TIP3      3029            0.0000000000
     26438      3166  TIP3      OH2             2.8959993526       18.9111721902       16.6553468313  TIP3      3030            0.0000000000
     26439      3166  TIP3      H1              2.0436113323       19.2358108974       16.2737704336  TIP3      3030            0.0000000000
     26440      3166  TIP3      H2              2.8851613808       19.3634879682       17.5137932853  TIP3      3030            0.0000000000
     26441      3167  TIP3      OH2             5.2096448504       18.1484634029       15.7549439435  TIP3      3031            0.0000000000
     26442      3167  TIP3      H1              4.3336743649       18.3466986902       16.1590194602  TIP3      3031            0.0000000000
     26443      3167  TIP3      H2              5.0431645511       18.4018466195       14.8384388949  TIP3      3031            0.0000000000
     26444      3168  TIP3      OH2            10.0313091581       17.7854463289       15.1101554067  TIP3      3032            0.0000000000
     26445      3168  TIP3      H1              9.3240365711       18.2519620123       14.6300435259  TIP3      3032            0.0000000000
     26446      3168  TIP3      H2             10.3543572046       18.5099130755       15.6897404390  TIP3      3032            0.0000000000
     26447      3169  TIP3      OH2            12.3225395790       16.4942747439       16.1856100221  TIP3      3033            0.0000000000
     26448      3169  TIP3      H1             11.5667395537       16.8469935630       15.6697633704  TIP3      3033            0.0000000000
     26449      3169  TIP3      H2             13.0066301957       17.1525941022       15.9184219610  TIP3      3033            0.0000000000
     26450      3170  TIP3      OH2            14.2937486213       18.0942827126       15.6253755723  TIP3      3034            0.0000000000
     26451      3170  TIP3      H1             14.7402067206       18.9700170725       15.6953731368  TIP3      3034            0.0000000000
     26452      3170  TIP3      H2             14.6987528243       17.7770689464       14.7882026653  TIP3      3034            0.0000000000
     26453      3171  TIP3      OH2             2.8396818950       17.1612625065       13.4256717234  TIP3      3035            0.0000000000
     26454      3171  TIP3      H1              2.5793145208       16.4556617673       14.0346069474  TIP3      3035            0.0000000000
     26455      3171  TIP3      H2              3.6884224035       16.8071525617       13.0526512983  TIP3      3035            0.0000000000
     26456      3172  TIP3      OH2             4.9911739825       15.9619966856       12.4119186093  TIP3      3036            0.0000000000
     26457      3172  TIP3      H1              4.8532799151       15.0094743830       12.5967989155  TIP3      3036            0.0000000000
     26458      3172  TIP3      H2              5.8546777065       16.0937836894       12.8677227065  TIP3      3036            0.0000000000
     26459      3173  TIP3      OH2             7.2687324921       15.9620525010       13.7947022903  TIP3      3037            0.0000000000
     26460      3173  TIP3      H1              7.4767163372       15.0199939352       13.6247945395  TIP3      3037            0.0000000000
     26461      3173  TIP3      H2              7.4127010263       16.0166974174       14.7541170031  TIP3      3037            0.0000000000
     26462      3174  TIP3      OH2            10.8241933333        2.3722808504       12.5521298743  TIP3      3038            0.0000000000
     26463      3174  TIP3      H1             10.0833105919        1.8004319034       12.8642913929  TIP3      3038            0.0000000000
     26464      3174  TIP3      H2             10.9479564582        2.0671450060       11.6390026931  TIP3      3038            0.0000000000
     26465      3175  TIP3      OH2            16.4217626635        0.2632951872       12.3973097711  TIP3      3039            0.0000000000
     26466      3175  TIP3      H1             16.8454902866        0.9252823260       11.8128657515  TIP3      3039            0.0000000000
     26467      3175  TIP3      H2             15.4909540434        0.5037990618       12.3596212475  TIP3      3039            0.0000000000
     26468      3176  TIP3      OH2            17.6436330287        1.7299032292       10.5715933028  TIP3      3040            0.0000000000
     26469      3176  TIP3      H1             18.1028322405        1.0366490194       10.0352023004  TIP3      3040            0.0000000000
     26470      3176  TIP3      H2             18.3333059769        2.4349637569       10.6115690953  TIP3      3040            0.0000000000
     26471      3177  TIP3      OH2             2.9110696746        0.8438343200        9.0168685153  TIP3      3041            0.0000000000
     26472      3177  TIP3      H1              2.0357307857        0.4546671210        9.1640851426  TIP3      3041            0.0000000000
     26473      3177  TIP3      H2              3.4635001678        0.0991681292        9.3489226084  TIP3      3041            0.0000000000
     26474      3178  TIP3      OH2             1.0586305415        0.2382473953        5.8416473072  TIP3      3042            0.0000000000
     26475      3178  TIP3      H1              1.7238810424        0.8530572176        5.4865780670  TIP3      3042            0.0000000000
     26476      3178  TIP3      H2              0.7932593139        0.6827815039        6.6648648025  TIP3      3042            0.0000000000
     26477      3179  TIP3      OH2             7.0678591281        1.0056515971        9.2966439739  TIP3      3043            0.0000000000
     26478      3179  TIP3      H1              7.6863915400        0.8656340587       10.0302939002  TIP3      3043            0.0000000000
     26479      3179  TIP3      H2              6.9552183030        0.0991988356        8.9734814747  TIP3      3043            0.0000000000
     26480      3180  TIP3      OH2            13.3634528630        0.5374081893       11.2296742086  TIP3      3044            0.0000000000
     26481      3180  TIP3      H1             13.0547418385       -0.1765670727       10.6590233511  TIP3      3044            0.0000000000
     26482      3180  TIP3      H2             12.9382877338        0.2477198121       12.0706094416  TIP3      3044            0.0000000000
     26483      3181  TIP3      OH2            14.6173121184        1.9895647538        6.9416387741  TIP3      3045            0.0000000000
     26484      3181  TIP3      H1             14.1941375757        2.8084836611        6.6017603922  TIP3      3045            0.0000000000
     26485      3181  TIP3      H2             13.9757190164        1.3151226499        6.6446258432  TIP3      3045            0.0000000000
     26486      3182  TIP3      OH2             2.1355670711       16.6880089784        7.1908031775  TIP3      3046            0.0000000000
     26487      3182  TIP3      H1              1.2311873298       16.6242017749        6.8631278786  TIP3      3046            0.0000000000
     26488      3182  TIP3      H2              2.2361243659       17.6464484522        7.1054859944  TIP3      3046            0.0000000000
     26489      3183  TIP3      OH2             3.4738466190        1.6245683999        4.5324087626  TIP3      3047            0.0000000000
     26490      3183  TIP3      H1              4.0233870041        1.8736530015        3.7720682462  TIP3      3047            0.0000000000
     26491      3183  TIP3      H2              4.1207475538        1.6966079683        5.2637637166  TIP3      3047            0.0000000000
     26492      3184  TIP3      OH2             8.6031162449        3.4029679384        7.0873740690  TIP3      3048            0.0000000000
     26493      3184  TIP3      H1              8.7159368021        2.5615044368        7.5583124020  TIP3      3048            0.0000000000
     26494      3184  TIP3      H2              9.1575416584        3.9910281201        7.6514142054  TIP3      3048            0.0000000000
     26495      3185  TIP3      OH2            10.8255361205       18.0633098826        4.9175741777  TIP3      3049            0.0000000000
     26496      3185  TIP3      H1             11.8080785095       18.0479804680        4.8333618201  TIP3      3049            0.0000000000
     26497      3185  TIP3      H2             10.5923342302       17.2867421344        4.3712999584  TIP3      3049            0.0000000000
     26498      3186  TIP3      OH2            17.4225354872       16.8888566720        8.3454726862  TIP3      3050            0.0000000000
     26499      3186  TIP3      H1             17.1370175579       16.0992456850        7.8201712360  TIP3      3050            0.0000000000
     26500      3186  TIP3      H2             17.2609464574       17.5928653666        7.6801309865  TIP3      3050            0.0000000000
     26501      3187  TIP3      OH2             2.6519763314        1.4233614692       20.0980519274  TIP3      3051            0.0000000000
     26502      3187  TIP3      H1              1.9355648991        0.8008512177       19.8865442713  TIP3      3051            0.0000000000
     26503      3187  TIP3      H2              3.4559992502        0.8796856295       20.0281317667  TIP3      3051            0.0000000000
     26504      3188  TIP3      OH2             5.0960635739        0.1372148471       20.6502003990  TIP3      3052            0.0000000000
     26505      3188  TIP3      H1              6.0389341798       -0.1030844047       20.6346532465  TIP3      3052            0.0000000000
     26506      3188  TIP3      H2              4.9455147392       -0.0191995748       21.6053513230  TIP3      3052            0.0000000000
     26507      3189  TIP3      OH2             3.8388479109       17.6365138784        3.9167414743  TIP3      3053            0.0000000000
     26508      3189  TIP3      H1              2.9644530480       17.9129239222        4.2247442946  TIP3      3053            0.0000000000
     26509      3189  TIP3      H2              4.0380229471       16.8789821530        4.4776806098  TIP3      3053            0.0000000000
     26510      3190  TIP3      OH2            13.0652689184       65.9433295761       21.9871732132  TIP3      3054            0.0000000000
     26511      3190  TIP3      H1             12.4321463786       65.2192129087       22.0844115798  TIP3      3054            0.0000000000
     26512      3190  TIP3      H2             13.2757544833       65.9201384693       21.0413705915  TIP3      3054            0.0000000000
     26513      3191  TIP3      OH2            16.2460313193       16.2211608420       19.8519717455  TIP3      3055            0.0000000000
     26514      3191  TIP3      H1             15.6820334477       16.3517638306       19.0526496716  TIP3      3055            0.0000000000
     26515      3191  TIP3      H2             16.1921159477       17.1236566279       20.2423757806  TIP3      3055            0.0000000000
     26516      3192  TIP3      OH2            31.1167616273       10.1027051466       10.2255487461  TIP3      3056            0.0000000000
     26517      3192  TIP3      H1             31.3807543025       10.5485558266       11.0482296814  TIP3      3056            0.0000000000
     26518      3192  TIP3      H2             30.8516843411       10.8759395748        9.6784188962  TIP3      3056            0.0000000000
     26519      3193  TIP3      OH2            29.9268251860        8.7043048359       13.5665682172  TIP3      3057            0.0000000000
     26520      3193  TIP3      H1             30.1490961305        8.2406238270       14.4084578614  TIP3      3057            0.0000000000
     26521      3193  TIP3      H2             29.3989225795        8.0600428029       13.0707983409  TIP3      3057            0.0000000000
     26522      3194  TIP3      OH2            22.1000209281        8.6410749104       14.9241993194  TIP3      3058            0.0000000000
     26523      3194  TIP3      H1             21.8556207986        7.8922477190       15.5087501194  TIP3      3058            0.0000000000
     26524      3194  TIP3      H2             22.8309447596        9.0218753473       15.4374421247  TIP3      3058            0.0000000000
     26525      3195  TIP3      OH2            33.2414209994       11.6622579032       12.2384444533  TIP3      3059            0.0000000000
     26526      3195  TIP3      H1             33.2783995275       10.9653960705       12.9127457288  TIP3      3059            0.0000000000
     26527      3195  TIP3      H2             33.5488865947       12.4172608431       12.7577185727  TIP3      3059            0.0000000000
     26528      3196  TIP3      OH2            23.2547833458       13.6786131514       12.3615348686  TIP3      3060            0.0000000000
     26529      3196  TIP3      H1             22.9391253441       12.7569919889       12.3773642650  TIP3      3060            0.0000000000
     26530      3196  TIP3      H2             24.1766055237       13.5363335633       12.6677508626  TIP3      3060            0.0000000000
     26531      3197  TIP3      OH2            19.8018977120        6.2216697713        9.1643149490  TIP3      3061            0.0000000000
     26532      3197  TIP3      H1             19.5320969771        7.1307789119        9.3553630842  TIP3      3061            0.0000000000
     26533      3197  TIP3      H2             19.0298841112        5.9447879864        8.6382510574  TIP3      3061            0.0000000000
     26534      3198  TIP3      OH2            19.8685323381        8.7974691892       11.5255278381  TIP3      3062            0.0000000000
     26535      3198  TIP3      H1             20.1775471716        7.8969716336       11.7751906559  TIP3      3062            0.0000000000
     26536      3198  TIP3      H2             20.6382797035        9.1791567788       11.0843121689  TIP3      3062            0.0000000000
     26537      3199  TIP3      OH2            31.0048536559       17.1822090623       11.8626445168  TIP3      3063            0.0000000000
     26538      3199  TIP3      H1             31.5899197589       16.6033045519       11.3074154127  TIP3      3063            0.0000000000
     26539      3199  TIP3      H2             30.8791053057       16.5731027924       12.6032621910  TIP3      3063            0.0000000000
     26540      3200  TIP3      OH2            28.3293955782       12.3344106464       14.2550141630  TIP3      3064            0.0000000000
     26541      3200  TIP3      H1             28.3518409743       11.6610698257       13.5611063089  TIP3      3064            0.0000000000
     26542      3200  TIP3      H2             29.2220882674       12.7180178855       14.1744177135  TIP3      3064            0.0000000000
     26543      3201  TIP3      OH2            36.5586952873        2.7784971655       14.5982758936  TIP3      3065            0.0000000000
     26544      3201  TIP3      H1             36.9786801298        3.4457527630       15.1797687438  TIP3      3065            0.0000000000
     26545      3201  TIP3      H2             37.2776374187        2.5253424697       13.9961849924  TIP3      3065            0.0000000000
     26546      3202  TIP3      OH2            32.1554296403        5.7949406925       14.0985643785  TIP3      3066            0.0000000000
     26547      3202  TIP3      H1             32.2717357695        4.8317812931       14.2315336457  TIP3      3066            0.0000000000
     26548      3202  TIP3      H2             31.7687445650        5.7858502453       13.1970278016  TIP3      3066            0.0000000000
     26549      3203  TIP3      OH2            24.9061840962        4.1089574654       11.1148869819  TIP3      3067            0.0000000000
     26550      3203  TIP3      H1             24.8498456393        4.8558661910       10.4847146552  TIP3      3067            0.0000000000
     26551      3203  TIP3      H2             24.3111342839        3.4983672797       10.6439311287  TIP3      3067            0.0000000000
     26552      3204  TIP3      OH2            32.3068601978        4.2237755762       10.0896576770  TIP3      3068            0.0000000000
     26553      3204  TIP3      H1             32.9532774086        3.8329403519       10.7255755467  TIP3      3068            0.0000000000
     26554      3204  TIP3      H2             32.9287382965        4.7364288713        9.5461473769  TIP3      3068            0.0000000000
     26555      3205  TIP3      OH2            21.0259264718        6.4118344874       12.1966394114  TIP3      3069            0.0000000000
     26556      3205  TIP3      H1             21.7193953060        6.1708944499       12.8373596021  TIP3      3069            0.0000000000
     26557      3205  TIP3      H2             21.4239178060        6.0576435238       11.3717742151  TIP3      3069            0.0000000000
     26558      3206  TIP3      OH2            25.6959775619        7.8357419973       11.5451023466  TIP3      3070            0.0000000000
     26559      3206  TIP3      H1             26.5492160294        7.4742760155       11.8615350031  TIP3      3070            0.0000000000
     26560      3206  TIP3      H2             25.4160865125        7.1858799824       10.8698693406  TIP3      3070            0.0000000000
     26561      3207  TIP3      OH2            37.1121712960        4.4778654245       16.8249720172  TIP3      3071            0.0000000000
     26562      3207  TIP3      H1             36.6862019761        5.3412789905       16.6072366161  TIP3      3071            0.0000000000
     26563      3207  TIP3      H2             37.0896458405        4.5011053727       17.7920886265  TIP3      3071            0.0000000000
     26564      3208  TIP3      OH2            23.7921474266        2.8385696981       15.1976002612  TIP3      3072            0.0000000000
     26565      3208  TIP3      H1             23.3152450352        3.3735568010       14.5361702602  TIP3      3072            0.0000000000
     26566      3208  TIP3      H2             23.2456806500        3.0371437009       15.9898968380  TIP3      3072            0.0000000000
     26567      3209  TIP3      OH2            30.4158130417       12.4444461340        8.9213583163  TIP3      3073            0.0000000000
     26568      3209  TIP3      H1             30.2257686641       12.3561265740        7.9666271279  TIP3      3073            0.0000000000
     26569      3209  TIP3      H2             30.1201001823       13.3677482258        9.0810412970  TIP3      3073            0.0000000000
     26570      3210  TIP3      OH2            25.6811764446       10.5915872007       15.1087936619  TIP3      3074            0.0000000000
     26571      3210  TIP3      H1             25.1051488079       11.1204064290       15.7043205985  TIP3      3074            0.0000000000
     26572      3210  TIP3      H2             25.9547884004       11.2772826023       14.4790774217  TIP3      3074            0.0000000000
     26573      3211  TIP3      OH2            34.1765697244        3.4336759950       11.7823832474  TIP3      3075            0.0000000000
     26574      3211  TIP3      H1             33.9996792955        2.5424075928       12.1070652528  TIP3      3075            0.0000000000
     26575      3211  TIP3      H2             34.9034245605        3.6942539710       12.3673744055  TIP3      3075            0.0000000000
     26576      3212  TIP3      OH2            23.2366897543        4.9806965597       13.3061632602  TIP3      3076            0.0000000000
     26577      3212  TIP3      H1             23.8727423877        5.4283065382       13.9098316693  TIP3      3076            0.0000000000
     26578      3212  TIP3      H2             23.8265350587        4.7368493848       12.5666295077  TIP3      3076            0.0000000000
     26579      3213  TIP3      OH2            24.4158922192       12.4595029488       16.8833363795  TIP3      3077            0.0000000000
     26580      3213  TIP3      H1             23.9939082860       13.2794621489       16.5829217903  TIP3      3077            0.0000000000
     26581      3213  TIP3      H2             23.6183613147       12.0071791116       17.2121767300  TIP3      3077            0.0000000000
     26582      3214  TIP3      OH2            20.1196582417       12.1566796225        7.4400696083  TIP3      3078            0.0000000000
     26583      3214  TIP3      H1             20.2394393314       12.5058998878        6.5371237381  TIP3      3078            0.0000000000
     26584      3214  TIP3      H2             20.4556214420       12.8709852246        8.0039286325  TIP3      3078            0.0000000000
     26585      3215  TIP3      OH2            34.1092013275       13.8667609381       14.3060573004  TIP3      3079            0.0000000000
     26586      3215  TIP3      H1             33.1603706995       14.0895448391       14.3988604068  TIP3      3079            0.0000000000
     26587      3215  TIP3      H2             34.3712497672       14.6712886736       13.8169509318  TIP3      3079            0.0000000000
     26588      3216  TIP3      OH2            34.1422553522        2.6191633746       15.8411149299  TIP3      3080            0.0000000000
     26589      3216  TIP3      H1             33.5153827579        2.7926157816       15.1135757024  TIP3      3080            0.0000000000
     26590      3216  TIP3      H2             34.9842512739        2.4623832886       15.3583847729  TIP3      3080            0.0000000000
     26591      3217  TIP3      OH2            27.4201635364        0.8149169973       12.6982905229  TIP3      3081            0.0000000000
     26592      3217  TIP3      H1             27.2947290189       -0.0819492418       12.3496318861  TIP3      3081            0.0000000000
     26593      3217  TIP3      H2             26.5116484213        1.0525214917       12.9833241036  TIP3      3081            0.0000000000
     26594      3218  TIP3      OH2            32.5272179168       15.5709369330       10.5042518165  TIP3      3082            0.0000000000
     26595      3218  TIP3      H1             32.8065798069       14.8095992875        9.9477295576  TIP3      3082            0.0000000000
     26596      3218  TIP3      H2             33.2994876720       16.1804504907       10.3890412479  TIP3      3082            0.0000000000
     26597      3219  TIP3      OH2            33.4568582375       13.5757023517        9.0447875141  TIP3      3083            0.0000000000
     26598      3219  TIP3      H1             33.1373100036       12.9982412867        8.3202068523  TIP3      3083            0.0000000000
     26599      3219  TIP3      H2             33.3388513260       12.9822663637        9.8020166440  TIP3      3083            0.0000000000
     26600      3220  TIP3      OH2            35.3937342187       12.1413955010       17.8189254337  TIP3      3084            0.0000000000
     26601      3220  TIP3      H1             35.3663449466       11.4537145233       17.1182399452  TIP3      3084            0.0000000000
     26602      3220  TIP3      H2             35.6111951910       12.9380136523       17.2987008113  TIP3      3084            0.0000000000
     26603      3221  TIP3      OH2            29.8296039769        9.1520326250        7.4654682794  TIP3      3085            0.0000000000
     26604      3221  TIP3      H1             29.3010029888        9.9813264239        7.5210625700  TIP3      3085            0.0000000000
     26605      3221  TIP3      H2             30.6310028940        9.5236833749        7.0482448489  TIP3      3085            0.0000000000
     26606      3222  TIP3      OH2            29.5069808433        8.2174460741        4.7616084104  TIP3      3086            0.0000000000
     26607      3222  TIP3      H1             29.9231047890        8.4548745631        5.6071281894  TIP3      3086            0.0000000000
     26608      3222  TIP3      H2             29.8598540450        7.3298320340        4.6011205182  TIP3      3086            0.0000000000
     26609      3223  TIP3      OH2            37.2713548250        8.9118968959       16.0295443836  TIP3      3087            0.0000000000
     26610      3223  TIP3      H1             36.4784744433        9.3909741200       15.7099529280  TIP3      3087            0.0000000000
     26611      3223  TIP3      H2             37.8923518282        9.1361226639       15.3096100915  TIP3      3087            0.0000000000
     26612      3224  TIP3      OH2            33.1909083532        8.6690438977        8.9353078918  TIP3      3088            0.0000000000
     26613      3224  TIP3      H1             32.4639975515        9.0530116342        9.4749070566  TIP3      3088            0.0000000000
     26614      3224  TIP3      H2             33.8960053689        8.5109713559        9.5871958048  TIP3      3088            0.0000000000
     26615      3225  TIP3      OH2            33.1706282674        7.8628923792       17.5937021749  TIP3      3089            0.0000000000
     26616      3225  TIP3      H1             32.6285811613        8.4938798501       18.0907790713  TIP3      3089            0.0000000000
     26617      3225  TIP3      H2             32.6207172143        7.7615942717       16.8071739920  TIP3      3089            0.0000000000
     26618      3226  TIP3      OH2            24.8225982880       10.0852362290       10.5810134464  TIP3      3090            0.0000000000
     26619      3226  TIP3      H1             24.5290836600        9.6956773422        9.7433421886  TIP3      3090            0.0000000000
     26620      3226  TIP3      H2             25.3080253284        9.3287033419       10.9788786853  TIP3      3090            0.0000000000
     26621      3227  TIP3      OH2            25.8335528742       13.0153527911       12.9698599311  TIP3      3091            0.0000000000
     26622      3227  TIP3      H1             25.9305200358       13.2307320862       12.0219484434  TIP3      3091            0.0000000000
     26623      3227  TIP3      H2             26.7421639892       13.0447664494       13.3110572449  TIP3      3091            0.0000000000
     26624      3228  TIP3      OH2            24.9952852324        8.2066623459       14.1007147833  TIP3      3092            0.0000000000
     26625      3228  TIP3      H1             25.0138383250        8.3921209372       13.1415318272  TIP3      3092            0.0000000000
     26626      3228  TIP3      H2             25.3864792651        9.0294573711       14.4429021384  TIP3      3092            0.0000000000
     26627      3229  TIP3      OH2            31.4535608514       14.3701082661       14.5770549473  TIP3      3093            0.0000000000
     26628      3229  TIP3      H1             31.4441111998       14.9251180542       15.3849671577  TIP3      3093            0.0000000000
     26629      3229  TIP3      H2             31.5146119961       13.4781828224       14.9725246779  TIP3      3093            0.0000000000
     26630      3230  TIP3      OH2            26.3186240235       13.3233052597       18.6633429775  TIP3      3094            0.0000000000
     26631      3230  TIP3      H1             25.6955721530       13.9136597916       19.1526354740  TIP3      3094            0.0000000000
     26632      3230  TIP3      H2             25.7009747159       13.0158437872       17.9618774785  TIP3      3094            0.0000000000
     26633      3231  TIP3      OH2            32.3262303370        8.7359553149        6.4027414530  TIP3      3095            0.0000000000
     26634      3231  TIP3      H1             32.7670642373        8.7565980897        7.2889881013  TIP3      3095            0.0000000000
     26635      3231  TIP3      H2             32.9155166275        9.2776395280        5.8302632476  TIP3      3095            0.0000000000
     26636      3232  TIP3      OH2            22.4771372038        9.6146343478       17.8593538351  TIP3      3096            0.0000000000
     26637      3232  TIP3      H1             22.6137859620       10.1174517948       18.6937705812  TIP3      3096            0.0000000000
     26638      3232  TIP3      H2             21.7925667621        8.9851088251       18.1465144431  TIP3      3096            0.0000000000
     26639      3233  TIP3      OH2            29.2989204094       15.1150888226        9.0271702614  TIP3      3097            0.0000000000
     26640      3233  TIP3      H1             29.3992954614       15.4824687799        9.9137814612  TIP3      3097            0.0000000000
     26641      3233  TIP3      H2             29.0204157997       15.8786142180        8.4941713246  TIP3      3097            0.0000000000
     26642      3234  TIP3      OH2            24.4452612939       14.9752491053       19.6211116482  TIP3      3098            0.0000000000
     26643      3234  TIP3      H1             24.1721831944       15.4307903719       18.7987281589  TIP3      3098            0.0000000000
     26644      3234  TIP3      H2             23.5708754678       14.6832993246       19.9516901865  TIP3      3098            0.0000000000
     26645      3235  TIP3      OH2            35.2349985111        0.7520491921        5.8199830649  TIP3      3099            0.0000000000
     26646      3235  TIP3      H1             34.8391756543        1.3534307642        6.4743093575  TIP3      3099            0.0000000000
     26647      3235  TIP3      H2             35.9985668634        1.2984361085        5.5285110336  TIP3      3099            0.0000000000
     26648      3236  TIP3      OH2            23.8483822892        8.7243199825        7.6364036123  TIP3      3100            0.0000000000
     26649      3236  TIP3      H1             23.3343292490        9.4445212775        7.1944155471  TIP3      3100            0.0000000000
     26650      3236  TIP3      H2             23.1773502626        8.0427356550        7.7438666699  TIP3      3100            0.0000000000
     26651      3237  TIP3      OH2            36.8399819373       14.3986454744        4.9678137984  TIP3      3101            0.0000000000
     26652      3237  TIP3      H1             36.9583252118       15.3713662987        4.9806500850  TIP3      3101            0.0000000000
     26653      3237  TIP3      H2             37.7192720699       14.0925692607        4.7048551753  TIP3      3101            0.0000000000
     26654      3238  TIP3      OH2            20.0495157245       11.6118459131       16.8730624256  TIP3      3102            0.0000000000
     26655      3238  TIP3      H1             19.6518921327       11.5382048638       15.9929409701  TIP3      3102            0.0000000000
     26656      3238  TIP3      H2             20.2508143090       10.6739234466       17.0603545425  TIP3      3102            0.0000000000
     26657      3239  TIP3      OH2            19.9642169305       14.0199891732       13.3418491956  TIP3      3103            0.0000000000
     26658      3239  TIP3      H1             20.7525683090       13.6050238100       13.7355885694  TIP3      3103            0.0000000000
     26659      3239  TIP3      H2             19.7544751630       14.7084179974       13.9994590405  TIP3      3103            0.0000000000
     26660      3240  TIP3      OH2            38.1956975380       14.2221578062       19.2659032104  TIP3      3104            0.0000000000
     26661      3240  TIP3      H1             38.0297009812       13.2672649503       19.3827322327  TIP3      3104            0.0000000000
     26662      3240  TIP3      H2             37.3491247159       14.5741481197       19.6085833635  TIP3      3104            0.0000000000
     26663      3241  TIP3      OH2            28.7051347201       14.5246070855       18.0173186293  TIP3      3105            0.0000000000
     26664      3241  TIP3      H1             28.7017530614       15.3652832991       18.5137053134  TIP3      3105            0.0000000000
     26665      3241  TIP3      H2             27.8402481863       14.1341718881       18.2722264666  TIP3      3105            0.0000000000
     26666      3242  TIP3      OH2            29.0083502984       17.8380886777        7.6173329056  TIP3      3106            0.0000000000
     26667      3242  TIP3      H1             29.0124359315       18.0864266026        6.6667662520  TIP3      3106            0.0000000000
     26668      3242  TIP3      H2             29.1639484494       18.6994346077        8.0677393628  TIP3      3106            0.0000000000
     26669      3243  TIP3      OH2            23.0655396458       16.7502636521        9.9381670784  TIP3      3107            0.0000000000
     26670      3243  TIP3      H1             23.1588707407       16.4303301930       10.8563446318  TIP3      3107            0.0000000000
     26671      3243  TIP3      H2             22.3085378123       16.2132995884        9.6136248564  TIP3      3107            0.0000000000
     26672      3244  TIP3      OH2            32.2986749379       17.3220686563        4.5022486178  TIP3      3108            0.0000000000
     26673      3244  TIP3      H1             32.7032287734       16.4338216153        4.5100400875  TIP3      3108            0.0000000000
     26674      3244  TIP3      H2             32.7737651731       17.7746873778        5.2378257119  TIP3      3108            0.0000000000
     26675      3245  TIP3      OH2            31.7551117202       17.3142615268        8.0565971044  TIP3      3109            0.0000000000
     26676      3245  TIP3      H1             30.7797260356       17.2837319541        8.0264351466  TIP3      3109            0.0000000000
     26677      3245  TIP3      H2             32.0022725504       16.4368341278        8.3835634210  TIP3      3109            0.0000000000
     26678      3246  TIP3      OH2            34.8829189641        6.2920606247       19.4949527351  TIP3      3110            0.0000000000
     26679      3246  TIP3      H1             34.2815076063        6.7900228963       18.9162118848  TIP3      3110            0.0000000000
     26680      3246  TIP3      H2             34.8314496106        5.3802700666       19.1449909545  TIP3      3110            0.0000000000
     26681      3247  TIP3      OH2            21.9942504655       12.9596081264       18.1834061607  TIP3      3111            0.0000000000
     26682      3247  TIP3      H1             22.1949452859       12.3529214678       18.9395262123  TIP3      3111            0.0000000000
     26683      3247  TIP3      H2             21.2495269132       12.5107118023       17.7214866924  TIP3      3111            0.0000000000
     26684      3248  TIP3      OH2            24.8742440805        1.2366265834       13.4554393004  TIP3      3112            0.0000000000
     26685      3248  TIP3      H1             24.0291100303        1.1541804309       12.9635524477  TIP3      3112            0.0000000000
     26686      3248  TIP3      H2             24.5643597032        1.7478603467       14.2399749479  TIP3      3112            0.0000000000
     26687      3249  TIP3      OH2            29.5830558522        1.2813130376       17.1734410456  TIP3      3113            0.0000000000
     26688      3249  TIP3      H1             29.8721701942        0.4369271320       17.5337907798  TIP3      3113            0.0000000000
     26689      3249  TIP3      H2             28.6274469262        1.1656233771       17.0870108378  TIP3      3113            0.0000000000
     26690      3250  TIP3      OH2            32.2628249547        5.1350124842       17.9617376271  TIP3      3114            0.0000000000
     26691      3250  TIP3      H1             31.8612527747        4.6717611432       18.7468392566  TIP3      3114            0.0000000000
     26692      3250  TIP3      H2             31.9752622856        6.0446891243       18.1141577979  TIP3      3114            0.0000000000
     26693      3251  TIP3      OH2            33.5459005931        9.9742631409        4.2768019337  TIP3      3115            0.0000000000
     26694      3251  TIP3      H1             33.3024000815       10.1940375788        3.3668244449  TIP3      3115            0.0000000000
     26695      3251  TIP3      H2             34.4784413755       10.2459551782        4.3175635923  TIP3      3115            0.0000000000
     26696      3252  TIP3      OH2            29.0604104662        3.8382383209        4.7835184227  TIP3      3116            0.0000000000
     26697      3252  TIP3      H1             28.6072441558        3.3182882646        5.4740407676  TIP3      3116            0.0000000000
     26698      3252  TIP3      H2             29.0841996042        3.1909516956        4.0742946168  TIP3      3116            0.0000000000
     26699      3253  TIP3      OH2            25.0287906666        5.7528776117       15.1276081881  TIP3      3117            0.0000000000
     26700      3253  TIP3      H1             24.6981822274        5.8897768419       16.0377799014  TIP3      3117            0.0000000000
     26701      3253  TIP3      H2             24.9779630798        6.6744551780       14.7733763394  TIP3      3117            0.0000000000
     26702      3254  TIP3      OH2            24.7757265174        6.2264887094        9.4304314349  TIP3      3118            0.0000000000
     26703      3254  TIP3      H1             23.8002264559        6.1032727075        9.4192992232  TIP3      3118            0.0000000000
     26704      3254  TIP3      H2             25.0103474400        6.4611936006        8.5152178756  TIP3      3118            0.0000000000
     26705      3255  TIP3      OH2            30.6471682791        6.5885538894        8.3024075047  TIP3      3119            0.0000000000
     26706      3255  TIP3      H1             30.6913279272        7.5229452018        8.0326559019  TIP3      3119            0.0000000000
     26707      3255  TIP3      H2             31.3253645764        6.2333251573        7.6882364580  TIP3      3119            0.0000000000
     26708      3256  TIP3      OH2            29.9980114502        7.6433248671       19.4820549273  TIP3      3120            0.0000000000
     26709      3256  TIP3      H1             29.1805775741        7.1114053879       19.3768915367  TIP3      3120            0.0000000000
     26710      3256  TIP3      H2             30.2730266479        7.3443143084       20.3742436208  TIP3      3120            0.0000000000
     26711      3257  TIP3      OH2            30.8269210698        6.2093301321       11.5849641252  TIP3      3121            0.0000000000
     26712      3257  TIP3      H1             31.1750201576        7.0752001017       11.3078333129  TIP3      3121            0.0000000000
     26713      3257  TIP3      H2             31.3577829639        5.5903063164       11.0354645498  TIP3      3121            0.0000000000
     26714      3258  TIP3      OH2            21.9528029775        6.4161328356       16.5984741945  TIP3      3122            0.0000000000
     26715      3258  TIP3      H1             22.7744703966        6.6862548495       17.0549809380  TIP3      3122            0.0000000000
     26716      3258  TIP3      H2             21.9077852275        5.4747951330       16.8409328530  TIP3      3122            0.0000000000
     26717      3259  TIP3      OH2            25.5622275752        3.8302939569        3.8408950844  TIP3      3123            0.0000000000
     26718      3259  TIP3      H1             25.3065744820        3.3084060229        4.6346935294  TIP3      3123            0.0000000000
     26719      3259  TIP3      H2             25.5358084515        4.7319514103        4.2061094979  TIP3      3123            0.0000000000
     26720      3260  TIP3      OH2            19.3485904969        3.7579557479       10.7522672164  TIP3      3124            0.0000000000
     26721      3260  TIP3      H1             19.9890410854        3.6014887795       11.4667382971  TIP3      3124            0.0000000000
     26722      3260  TIP3      H2             19.6696309605        4.5956197231       10.3888318387  TIP3      3124            0.0000000000
     26723      3261  TIP3      OH2            20.7542254125        4.6031901000        6.6236857246  TIP3      3125            0.0000000000
     26724      3261  TIP3      H1             21.1843331956        5.0429817981        5.8585100534  TIP3      3125            0.0000000000
     26725      3261  TIP3      H2             20.2539192976        5.3475135806        6.9879751007  TIP3      3125            0.0000000000
     26726      3262  TIP3      OH2            30.6760966098        7.5176263712       15.9037184200  TIP3      3126            0.0000000000
     26727      3262  TIP3      H1             31.1209417717        6.6821893019       15.6698722918  TIP3      3126            0.0000000000
     26728      3262  TIP3      H2             29.9717802953        7.1757265810       16.5154771942  TIP3      3126            0.0000000000
     26729      3263  TIP3      OH2            27.7475479876        3.8465304556       10.7991457454  TIP3      3127            0.0000000000
     26730      3263  TIP3      H1             26.7909088061        3.7013855262       10.9356094023  TIP3      3127            0.0000000000
     26731      3263  TIP3      H2             28.0927513885        3.4758741158       11.6223432531  TIP3      3127            0.0000000000
     26732      3264  TIP3      OH2            22.2127198974        5.4615060357        9.8235620698  TIP3      3128            0.0000000000
     26733      3264  TIP3      H1             21.3788085369        5.6863116600        9.3472827680  TIP3      3128            0.0000000000
     26734      3264  TIP3      H2             22.4307803004        4.5793803617        9.4413602824  TIP3      3128            0.0000000000
     26735      3265  TIP3      OH2            26.5252675880        6.4553067511        7.2278504902  TIP3      3129            0.0000000000
     26736      3265  TIP3      H1             27.0206657813        5.6179451862        7.3076945356  TIP3      3129            0.0000000000
     26737      3265  TIP3      H2             25.8958085083        6.2776716387        6.4977206533  TIP3      3129            0.0000000000
     26738      3266  TIP3      OH2            31.9509173821        3.0816700002       14.1014827954  TIP3      3130            0.0000000000
     26739      3266  TIP3      H1             31.3860641141        3.2080680222       14.9038420664  TIP3      3130            0.0000000000
     26740      3266  TIP3      H2             31.2929855810        2.6786624962       13.4961904499  TIP3      3130            0.0000000000
     26741      3267  TIP3      OH2            24.8467386246        6.3461421575        5.1572786944  TIP3      3131            0.0000000000
     26742      3267  TIP3      H1             24.1035607816        6.3907090891        4.5440769792  TIP3      3131            0.0000000000
     26743      3267  TIP3      H2             25.5367052329        6.8856711514        4.6933414877  TIP3      3131            0.0000000000
     26744      3268  TIP3      OH2            34.8381135787       18.8268221827       20.5018069518  TIP3      3132            0.0000000000
     26745      3268  TIP3      H1             35.1578957272       19.2991115151       19.7113770733  TIP3      3132            0.0000000000
     26746      3268  TIP3      H2             35.5292835092       19.0805578919       21.1545390149  TIP3      3132            0.0000000000
     26747      3269  TIP3      OH2            22.6922557678       11.0896225042       20.2872501036  TIP3      3133            0.0000000000
     26748      3269  TIP3      H1             23.2677678288       11.1797211285       21.0647184243  TIP3      3133            0.0000000000
     26749      3269  TIP3      H2             21.8446944312       10.8460008592       20.7240048819  TIP3      3133            0.0000000000
     26750      3270  TIP3      OH2            28.1743227399        6.7050873096       12.1324801722  TIP3      3134            0.0000000000
     26751      3270  TIP3      H1             29.0986649567        6.3887702043       11.9899923765  TIP3      3134            0.0000000000
     26752      3270  TIP3      H2             27.7848701948        5.9002689278       12.5170647736  TIP3      3134            0.0000000000
     26753      3271  TIP3      OH2            23.2519137202        2.9457366892        9.2410081263  TIP3      3135            0.0000000000
     26754      3271  TIP3      H1             22.6744439575        2.2461061116        9.6239991672  TIP3      3135            0.0000000000
     26755      3271  TIP3      H2             23.8759747677        2.3879372993        8.7456278395  TIP3      3135            0.0000000000
     26756      3272  TIP3      OH2            27.4295918170        4.3694304315       14.4811279908  TIP3      3136            0.0000000000
     26757      3272  TIP3      H1             26.6401686775        4.9405926602       14.6059851512  TIP3      3136            0.0000000000
     26758      3272  TIP3      H2             28.0999903010        4.8107722747       15.0288993778  TIP3      3136            0.0000000000
     26759      3273  TIP3      OH2            27.8538053797       10.9907233226        7.4767132216  TIP3      3137            0.0000000000
     26760      3273  TIP3      H1             27.1440156724       10.4816263064        7.0164988586  TIP3      3137            0.0000000000
     26761      3273  TIP3      H2             27.3622960873       11.4002127450        8.2288150571  TIP3      3137            0.0000000000
     26762      3274  TIP3      OH2            35.2162659594       10.7567429197       15.5175973899  TIP3      3138            0.0000000000
     26763      3274  TIP3      H1             35.7472182083       11.3404112774       14.9214740714  TIP3      3138            0.0000000000
     26764      3274  TIP3      H2             34.4535418760       10.5295625755       14.9579632486  TIP3      3138            0.0000000000
     26765      3275  TIP3      OH2            31.6391169705        3.7077021457        5.7126126183  TIP3      3139            0.0000000000
     26766      3275  TIP3      H1             30.8146898518        3.8598738577        5.2082790796  TIP3      3139            0.0000000000
     26767      3275  TIP3      H2             32.1297644120        4.5275072386        5.5211192103  TIP3      3139            0.0000000000
     26768      3276  TIP3      OH2            29.4632734061       11.8248145172       18.6696800737  TIP3      3140            0.0000000000
     26769      3276  TIP3      H1             28.9873197530       11.6270496566       19.4955300274  TIP3      3140            0.0000000000
     26770      3276  TIP3      H2             29.5767737957       12.7901239901       18.7247445389  TIP3      3140            0.0000000000
     26771      3277  TIP3      OH2            32.6903921675        6.0359619546        6.5855815317  TIP3      3141            0.0000000000
     26772      3277  TIP3      H1             33.3802750796        5.8999153082        7.2697312173  TIP3      3141            0.0000000000
     26773      3277  TIP3      H2             32.7939998570        6.9871285190        6.3856753402  TIP3      3141            0.0000000000
     26774      3278  TIP3      OH2            22.9071972900       10.7532737984       12.5645003569  TIP3      3142            0.0000000000
     26775      3278  TIP3      H1             23.5156026256       10.6700027723       11.8018475435  TIP3      3142            0.0000000000
     26776      3278  TIP3      H2             23.1570933631       10.0016025559       13.1163435077  TIP3      3142            0.0000000000
     26777      3279  TIP3      OH2            29.8828017717       12.0846491490        6.1578615760  TIP3      3143            0.0000000000
     26778      3279  TIP3      H1             29.6399259134       13.0297624481        6.0100473614  TIP3      3143            0.0000000000
     26779      3279  TIP3      H2             29.0574882478       11.6807292386        6.5017690463  TIP3      3143            0.0000000000
     26780      3280  TIP3      OH2            19.7013717718        9.0264700477       18.2085985109  TIP3      3144            0.0000000000
     26781      3280  TIP3      H1             19.5971003886        8.3071755363       18.8711965748  TIP3      3144            0.0000000000
     26782      3280  TIP3      H2             19.3118630948        8.6342604284       17.3956944380  TIP3      3144            0.0000000000
     26783      3281  TIP3      OH2            26.2910034303        9.2665488826       19.6065636749  TIP3      3145            0.0000000000
     26784      3281  TIP3      H1             26.6308611957        8.4123276712       19.2654243293  TIP3      3145            0.0000000000
     26785      3281  TIP3      H2             26.0852803049        8.9816305869       20.5073453014  TIP3      3145            0.0000000000
     26786      3282  TIP3      OH2            32.2558187584       14.0972934848       18.4321454460  TIP3      3146            0.0000000000
     26787      3282  TIP3      H1             31.4663540593       14.3772455026       17.9432536191  TIP3      3146            0.0000000000
     26788      3282  TIP3      H2             32.0506319901       14.4929182487       19.3102516707  TIP3      3146            0.0000000000
     26789      3283  TIP3      OH2            36.7500046345        6.3446431017        7.1522689134  TIP3      3147            0.0000000000
     26790      3283  TIP3      H1             36.5667052532        6.1287561627        6.2194230260  TIP3      3147            0.0000000000
     26791      3283  TIP3      H2             37.3222240231        7.1225684226        7.0416020118  TIP3      3147            0.0000000000
     26792      3284  TIP3      OH2            37.7467658929       11.5568655901       19.2139673287  TIP3      3148            0.0000000000
     26793      3284  TIP3      H1             36.8424971882       11.6760788070       18.8305618165  TIP3      3148            0.0000000000
     26794      3284  TIP3      H2             38.2878492058       11.5587753572       18.3872830169  TIP3      3148            0.0000000000
     26795      3285  TIP3      OH2            34.9537198151       15.1364927984        7.0223874165  TIP3      3149            0.0000000000
     26796      3285  TIP3      H1             34.6863415697       14.3788339994        7.5675912100  TIP3      3149            0.0000000000
     26797      3285  TIP3      H2             35.5303820992       14.7289682470        6.3446317748  TIP3      3149            0.0000000000
     26798      3286  TIP3      OH2            32.9128384395        9.7186358301       14.2340467397  TIP3      3150            0.0000000000
     26799      3286  TIP3      H1             32.0267613743        9.3236363991       14.3134076688  TIP3      3150            0.0000000000
     26800      3286  TIP3      H2             33.3739078276        9.0014060936       13.7441363230  TIP3      3150            0.0000000000
     26801      3287  TIP3      OH2            25.0846697841       14.0046133053       10.2094631704  TIP3      3151            0.0000000000
     26802      3287  TIP3      H1             25.3632313410       14.8510144642        9.7902812713  TIP3      3151            0.0000000000
     26803      3287  TIP3      H2             24.1423981368       13.9856398570        9.9729747948  TIP3      3151            0.0000000000
     26804      3288  TIP3      OH2            21.1153385472        9.1731685208        4.1088730534  TIP3      3152            0.0000000000
     26805      3288  TIP3      H1             21.4936806676        9.6675804528        4.8615906862  TIP3      3152            0.0000000000
     26806      3288  TIP3      H2             20.2248917176        8.9496777810        4.4448323721  TIP3      3152            0.0000000000
     26807      3289  TIP3      OH2            26.6277194348       11.9276127542        9.6888178993  TIP3      3153            0.0000000000
     26808      3289  TIP3      H1             26.1290211956       12.7583774912        9.8778757175  TIP3      3153            0.0000000000
     26809      3289  TIP3      H2             26.0950107560       11.2457805261       10.1493365132  TIP3      3153            0.0000000000
     26810      3290  TIP3      OH2            27.1591546653       15.9637942585       16.3038314102  TIP3      3154            0.0000000000
     26811      3290  TIP3      H1             27.8743550344       16.5675643653       15.9947848901  TIP3      3154            0.0000000000
     26812      3290  TIP3      H2             27.6962782715       15.3861843901       16.8822558150  TIP3      3154            0.0000000000
     26813      3291  TIP3      OH2            25.6639664428       16.4396549613        9.1170438026  TIP3      3155            0.0000000000
     26814      3291  TIP3      H1             24.7695211675       16.8000349643        9.3089193005  TIP3      3155            0.0000000000
     26815      3291  TIP3      H2             26.1889184175       17.1890773358        9.4696964093  TIP3      3155            0.0000000000
     26816      3292  TIP3      OH2            31.2267842832       11.9235262636       15.8990376278  TIP3      3156            0.0000000000
     26817      3292  TIP3      H1             31.4988206247       11.8299911418       16.8386370959  TIP3      3156            0.0000000000
     26818      3292  TIP3      H2             31.8778098892       11.3370716551       15.4721290063  TIP3      3156            0.0000000000
     26819      3293  TIP3      OH2            33.0394768210       13.0560313823        5.0868367113  TIP3      3157            0.0000000000
     26820      3293  TIP3      H1             33.3270994009       12.5693901170        5.8936088849  TIP3      3157            0.0000000000
     26821      3293  TIP3      H2             32.2804270824       12.5289465759        4.7969956321  TIP3      3157            0.0000000000
     26822      3294  TIP3      OH2            34.1121587631       16.1227080884       17.8938764656  TIP3      3158            0.0000000000
     26823      3294  TIP3      H1             33.3130153110       15.5655418589       18.0018005565  TIP3      3158            0.0000000000
     26824      3294  TIP3      H2             33.8212542966       16.7597046031       17.2108997618  TIP3      3158            0.0000000000
     26825      3295  TIP3      OH2            37.3995940433       17.1239963373        5.0915741421  TIP3      3159            0.0000000000
     26826      3295  TIP3      H1             37.9115954850       17.6828890631        4.4792363153  TIP3      3159            0.0000000000
     26827      3295  TIP3      H2             36.9059805941       17.7861760651        5.6223079597  TIP3      3159            0.0000000000
     26828      3296  TIP3      OH2            22.0847919478        3.6424880784       17.4394574020  TIP3      3160            0.0000000000
     26829      3296  TIP3      H1             21.6228907339        4.1501350991       18.1263598277  TIP3      3160            0.0000000000
     26830      3296  TIP3      H2             21.8862379773        2.7541785622       17.7830444032  TIP3      3160            0.0000000000
     26831      3297  TIP3      OH2            33.8081112902       11.5724282203        7.2588449114  TIP3      3161            0.0000000000
     26832      3297  TIP3      H1             33.6801142520       10.7320171851        7.7217014161  TIP3      3161            0.0000000000
     26833      3297  TIP3      H2             34.7936092410       11.6499413853        7.2555910058  TIP3      3161            0.0000000000
     26834      3298  TIP3      OH2            21.1775868263       15.1924307940       16.0815325482  TIP3      3162            0.0000000000
     26835      3298  TIP3      H1             21.9838219868       14.8460693758       16.4917788031  TIP3      3162            0.0000000000
     26836      3298  TIP3      H2             21.0196118094       16.0054334347       16.5766202862  TIP3      3162            0.0000000000
     26837      3299  TIP3      OH2            25.7540381080       13.3962333204        5.8133334320  TIP3      3163            0.0000000000
     26838      3299  TIP3      H1             26.4534752307       12.8957348902        6.2603557514  TIP3      3163            0.0000000000
     26839      3299  TIP3      H2             25.9556835219       14.3288751986        6.0548508006  TIP3      3163            0.0000000000
     26840      3300  TIP3      OH2            22.2509192634       10.5641740367        6.3089943623  TIP3      3164            0.0000000000
     26841      3300  TIP3      H1             21.5201191893       10.9971694511        6.7983093780  TIP3      3164            0.0000000000
     26842      3300  TIP3      H2             22.6879147977       11.3210867772        5.8763745453  TIP3      3164            0.0000000000
     26843      3301  TIP3      OH2            30.6313303447        3.5284742666       16.3561654587  TIP3      3165            0.0000000000
     26844      3301  TIP3      H1             31.3970058980        3.7687818978       16.9116311262  TIP3      3165            0.0000000000
     26845      3301  TIP3      H2             30.3115481190        2.7155669971       16.8193602801  TIP3      3165            0.0000000000
     26846      3302  TIP3      OH2            30.6368909576        3.2830395649        8.2507511342  TIP3      3166            0.0000000000
     26847      3302  TIP3      H1             31.1318837346        3.5605362741        7.4412581158  TIP3      3166            0.0000000000
     26848      3302  TIP3      H2             31.2065409497        3.6476591084        8.9636618217  TIP3      3166            0.0000000000
     26849      3303  TIP3      OH2            28.9561011006       14.7642988734        5.7532927938  TIP3      3167            0.0000000000
     26850      3303  TIP3      H1             28.1081184783       15.2120739559        5.8975509730  TIP3      3167            0.0000000000
     26851      3303  TIP3      H2             29.5950867540       15.4806651297        5.8355262830  TIP3      3167            0.0000000000
     26852      3304  TIP3      OH2            28.4661775491        5.0002999211        8.5323480074  TIP3      3168            0.0000000000
     26853      3304  TIP3      H1             29.4280967748        5.1727676933        8.4736667103  TIP3      3168            0.0000000000
     26854      3304  TIP3      H2             28.3862149543        4.4593991435        9.3547869170  TIP3      3168            0.0000000000
     26855      3305  TIP3      OH2            29.2969032796        5.7639058971       17.3691902398  TIP3      3169            0.0000000000
     26856      3305  TIP3      H1             28.7060128149        5.5873767904       18.1326337065  TIP3      3169            0.0000000000
     26857      3305  TIP3      H2             29.6900527109        4.8787268879       17.2328262333  TIP3      3169            0.0000000000
     26858      3306  TIP3      OH2            29.0355388775        1.3555777993        9.1354407296  TIP3      3170            0.0000000000
     26859      3306  TIP3      H1             28.7792889852        1.9881561674        9.8263622757  TIP3      3170            0.0000000000
     26860      3306  TIP3      H2             29.6641515817        1.9272927430        8.6315445495  TIP3      3170            0.0000000000
     26861      3307  TIP3      OH2            26.1943355288       16.1416053214        6.1229149079  TIP3      3171            0.0000000000
     26862      3307  TIP3      H1             26.2943017619       17.0472290558        5.7719598887  TIP3      3171            0.0000000000
     26863      3307  TIP3      H2             25.8084480959       16.3456131620        6.9921650490  TIP3      3171            0.0000000000
     26864      3308  TIP3      OH2            24.5691464567        2.8183998560        6.1744880283  TIP3      3172            0.0000000000
     26865      3308  TIP3      H1             24.3605143580        3.5397080281        6.7832223367  TIP3      3172            0.0000000000
     26866      3308  TIP3      H2             25.4771531916        2.5898917394        6.4516484749  TIP3      3172            0.0000000000
     26867      3309  TIP3      OH2            34.8401971421        3.7684564204       18.5034228112  TIP3      3173            0.0000000000
     26868      3309  TIP3      H1             33.9411497993        4.0831594038       18.2831960932  TIP3      3173            0.0000000000
     26869      3309  TIP3      H2             35.0573707489        3.3078116323       17.6630662368  TIP3      3173            0.0000000000
     26870      3310  TIP3      OH2            33.7508748137        7.3969934211       12.6082158889  TIP3      3174            0.0000000000
     26871      3310  TIP3      H1             33.1671675350        6.8516013544       13.1830647567  TIP3      3174            0.0000000000
     26872      3310  TIP3      H2             34.6116638911        7.0246573474       12.9375803192  TIP3      3174            0.0000000000
     26873      3311  TIP3      OH2            23.0737725193       13.3168506998        4.6953519699  TIP3      3175            0.0000000000
     26874      3311  TIP3      H1             23.8790502511       13.5480075480        5.1948061793  TIP3      3175            0.0000000000
     26875      3311  TIP3      H2             23.4578836409       12.6531689997        4.0895964208  TIP3      3175            0.0000000000
     26876      3312  TIP3      OH2            21.3167222020        6.1450389986        4.4949069271  TIP3      3176            0.0000000000
     26877      3312  TIP3      H1             21.8160239234        6.9704996021        4.4975247915  TIP3      3176            0.0000000000
     26878      3312  TIP3      H2             20.4902832580        6.4432530036        4.0796398017  TIP3      3176            0.0000000000
     26879      3313  TIP3      OH2            34.4994446453       16.5576660739       13.8598057771  TIP3      3177            0.0000000000
     26880      3313  TIP3      H1             34.5859756448       17.1673542159       13.0994330703  TIP3      3177            0.0000000000
     26881      3313  TIP3      H2             35.4419795218       16.3826992233       14.0536190996  TIP3      3177            0.0000000000
     26882      3314  TIP3      OH2            22.3938119661        0.8970289951       12.3985142176  TIP3      3178            0.0000000000
     26883      3314  TIP3      H1             22.0099154350        0.7479552645       11.5122190925  TIP3      3178            0.0000000000
     26884      3314  TIP3      H2             22.0254824392        0.1584523649       12.9405582178  TIP3      3178            0.0000000000
     26885      3315  TIP3      OH2            21.0532981177       15.2075741135        9.0710234836  TIP3      3179            0.0000000000
     26886      3315  TIP3      H1             20.1107574855       15.3040418026        9.2344945076  TIP3      3179            0.0000000000
     26887      3315  TIP3      H2             21.0757644488       15.5288765279        8.1368723084  TIP3      3179            0.0000000000
     26888      3316  TIP3      OH2            20.1940849884       17.0294995370       20.0948942007  TIP3      3180            0.0000000000
     26889      3316  TIP3      H1             20.7583083866       16.3725334810       20.5400504539  TIP3      3180            0.0000000000
     26890      3316  TIP3      H2             19.6208632079       16.4059114480       19.5840612851  TIP3      3180            0.0000000000
     26891      3317  TIP3      OH2            25.5458705621       16.1371659357       21.8301146835  TIP3      3181            0.0000000000
     26892      3317  TIP3      H1             26.4498656478       15.7900567425       21.6814026044  TIP3      3181            0.0000000000
     26893      3317  TIP3      H2             25.1127785218       15.8663765029       20.9910525039  TIP3      3181            0.0000000000
     26894      3318  TIP3      OH2            31.8695078892       15.1841116464       20.8952640107  TIP3      3182            0.0000000000
     26895      3318  TIP3      H1             31.6589157017       14.2879954792       21.2517732981  TIP3      3182            0.0000000000
     26896      3318  TIP3      H2             32.7252621470       15.3458387669       21.3602555982  TIP3      3182            0.0000000000
     26897      3319  TIP3      OH2            34.0477123420       15.1930852741        3.2969450849  TIP3      3183            0.0000000000
     26898      3319  TIP3      H1             33.9551655551       14.5802330482        4.0560182694  TIP3      3183            0.0000000000
     26899      3319  TIP3      H2             34.8119666319       14.8118903810        2.8256501521  TIP3      3183            0.0000000000
     26900      3320  TIP3      OH2            20.0382608594       11.0706049385       20.7756222795  TIP3      3184            0.0000000000
     26901      3320  TIP3      H1             19.3158600317       10.4339833838       20.7298489760  TIP3      3184            0.0000000000
     26902      3320  TIP3      H2             19.7711884121       11.6992932149       20.0628434039  TIP3      3184            0.0000000000
     26903      3321  TIP3      OH2            24.6030968421       11.3921526371        3.3929588219  TIP3      3185            0.0000000000
     26904      3321  TIP3      H1             25.2563224330       11.5687907425        4.0868700859  TIP3      3185            0.0000000000
     26905      3321  TIP3      H2             25.1603266025       10.8281417478        2.8126817629  TIP3      3185            0.0000000000
     26906      3322  TIP3      OH2            27.2354811725       11.6943014344       20.6028476586  TIP3      3186            0.0000000000
     26907      3322  TIP3      H1             26.8237909773       12.1987974783       19.8735370116  TIP3      3186            0.0000000000
     26908      3322  TIP3      H2             26.8213501927       10.8207432378       20.4474814752  TIP3      3186            0.0000000000
     26909      3323  TIP3      OH2            32.7143746958       11.2336953643       18.2005453042  TIP3      3187            0.0000000000
     26910      3323  TIP3      H1             33.6291908997       11.5467066157       18.0477195629  TIP3      3187            0.0000000000
     26911      3323  TIP3      H2             32.3753260022       12.0390994171       18.6296052263  TIP3      3187            0.0000000000
     26912      3324  TIP3      OH2            21.6818234167        8.4345401086       20.9315806540  TIP3      3188            0.0000000000
     26913      3324  TIP3      H1             22.2411619625        7.7000967487       21.2332412741  TIP3      3188            0.0000000000
     26914      3324  TIP3      H2             21.4295789675        8.8315183901       21.7932325252  TIP3      3188            0.0000000000
     26915      3325  TIP3      OH2            26.1042477515        9.3578827497        6.1575806086  TIP3      3189            0.0000000000
     26916      3325  TIP3      H1             25.2653142871        8.9841812327        6.4944508549  TIP3      3189            0.0000000000
     26917      3325  TIP3      H2             26.2884953162        8.8099944914        5.3651617034  TIP3      3189            0.0000000000
     26918      3326  TIP3      OH2            24.3747740225        7.5094530639       17.3931722032  TIP3      3190            0.0000000000
     26919      3326  TIP3      H1             24.1100638532        8.4086521405       17.6760561756  TIP3      3190            0.0000000000
     26920      3326  TIP3      H2             25.1338180889        7.2989347587       17.9589637401  TIP3      3190            0.0000000000
     26921      3327  TIP3      OH2            26.9230319150        7.6665262218        4.0224161906  TIP3      3191            0.0000000000
     26922      3327  TIP3      H1             26.9352106361        7.8275966300        3.0638883258  TIP3      3191            0.0000000000
     26923      3327  TIP3      H2             27.8819276458        7.6704311032        4.2590663971  TIP3      3191            0.0000000000
     26924      3328  TIP3      OH2            30.5711000800       10.0473086426       21.3434882696  TIP3      3192            0.0000000000
     26925      3328  TIP3      H1             31.3567156788        9.5190670766       21.0855031773  TIP3      3192            0.0000000000
     26926      3328  TIP3      H2             29.9868295825        9.8842466298       20.5866761148  TIP3      3192            0.0000000000
     26927      3329  TIP3      OH2            36.1613204843       10.7861152348        3.1601321413  TIP3      3193            0.0000000000
     26928      3329  TIP3      H1             35.4437824911       10.7898739135        2.5098349904  TIP3      3193            0.0000000000
     26929      3329  TIP3      H2             36.2370916956       11.7321346759        3.3764259420  TIP3      3193            0.0000000000
     26930      3330  TIP3      OH2            25.1130119432        4.2672986021       18.6249515882  TIP3      3194            0.0000000000
     26931      3330  TIP3      H1             25.6590738364        3.9530195055       17.8853602275  TIP3      3194            0.0000000000
     26932      3330  TIP3      H2             25.7822374542        4.7555819164       19.1372415561  TIP3      3194            0.0000000000
     26933      3331  TIP3      OH2            26.2730599982        3.0286237047       16.4749655858  TIP3      3195            0.0000000000
     26934      3331  TIP3      H1             26.9500731116        3.4196017993       15.8852529851  TIP3      3195            0.0000000000
     26935      3331  TIP3      H2             25.4733959295        3.1499805715       15.9224174753  TIP3      3195            0.0000000000
     26936      3332  TIP3      OH2            27.2959599002        8.4481220520       16.3719699089  TIP3      3196            0.0000000000
     26937      3332  TIP3      H1             27.2712807296        7.4881847119       16.2351354567  TIP3      3196            0.0000000000
     26938      3332  TIP3      H2             26.4385317213        8.7383994754       16.0186913163  TIP3      3196            0.0000000000
     26939      3333  TIP3      OH2            31.0268537233        6.7643578084       21.8489067802  TIP3      3197            0.0000000000
     26940      3333  TIP3      H1             30.9994324466        5.8844341855       22.2701781626  TIP3      3197            0.0000000000
     26941      3333  TIP3      H2             31.9357368665        6.8064811078       21.5295806829  TIP3      3197            0.0000000000
     26942      3334  TIP3      OH2            33.1982853499        9.3531240715       20.4128041418  TIP3      3198            0.0000000000
     26943      3334  TIP3      H1             33.1014706658        9.9862895556       19.6805342986  TIP3      3198            0.0000000000
     26944      3334  TIP3      H2             34.1489041656        9.1670109759       20.2890378927  TIP3      3198            0.0000000000
     26945      3335  TIP3      OH2            24.3392856769        6.1899145209       21.1599292658  TIP3      3199            0.0000000000
     26946      3335  TIP3      H1             23.7336083299        5.6873022409       20.5701319735  TIP3      3199            0.0000000000
     26947      3335  TIP3      H2             25.0552487047        6.4456756361       20.5485164172  TIP3      3199            0.0000000000
     26948      3336  TIP3      OH2            26.8394845144        0.6032016998       17.1207686183  TIP3      3200            0.0000000000
     26949      3336  TIP3      H1             26.6623775045        1.5766948072       17.0936462113  TIP3      3200            0.0000000000
     26950      3336  TIP3      H2             26.1471372651        0.2922929820       16.5146349590  TIP3      3200            0.0000000000
     26951      3337  TIP3      OH2            28.2625849481        3.4913483937       19.6087467297  TIP3      3201            0.0000000000
     26952      3337  TIP3      H1             27.7368410777        2.8018706771       20.0479620851  TIP3      3201            0.0000000000
     26953      3337  TIP3      H2             27.8216282671        4.3299348049       19.8622805057  TIP3      3201            0.0000000000
     26954      3338  TIP3      OH2            30.9693811348        3.8685523570       19.8370997938  TIP3      3202            0.0000000000
     26955      3338  TIP3      H1             30.0332619190        3.5989468667       19.9421450317  TIP3      3202            0.0000000000
     26956      3338  TIP3      H2             31.4098967552        3.4452898315       20.6085540792  TIP3      3202            0.0000000000
     26957      3339  TIP3      OH2            32.2468108893        2.8550752152       21.8906779482  TIP3      3203            0.0000000000
     26958      3339  TIP3      H1             31.9220583274        1.9313276787       21.9210678416  TIP3      3203            0.0000000000
     26959      3339  TIP3      H2             33.1731960270        2.7212524652       22.2134406472  TIP3      3203            0.0000000000
     26960      3340  TIP3      OH2            22.2755473421        4.2807435460       20.7711432548  TIP3      3204            0.0000000000
     26961      3340  TIP3      H1             22.8711239604        3.5206966333       20.8535135227  TIP3      3204            0.0000000000
     26962      3340  TIP3      H2             22.1131518657        4.5593567043       21.6922328142  TIP3      3204            0.0000000000
     26963      3341  TIP3      OH2            27.0043719341        0.8837335094       19.7376396503  TIP3      3205            0.0000000000
     26964      3341  TIP3      H1             26.8014219432       -0.0762619140       19.8537413512  TIP3      3205            0.0000000000
     26965      3341  TIP3      H2             26.9817558804        0.9375923439       18.7575579397  TIP3      3205            0.0000000000
     26966      3342  TIP3      OH2            26.3656598725        1.2887502601       22.2461198375  TIP3      3206            0.0000000000
     26967      3342  TIP3      H1             26.4715681349        1.1210539210       21.2865940125  TIP3      3206            0.0000000000
     26968      3342  TIP3      H2             25.9229561012        2.1676521708       22.2020552299  TIP3      3206            0.0000000000
     26969      3343  TIP3      OH2            26.7474010211       18.6801350867        4.9308982259  TIP3      3207            0.0000000000
     26970      3343  TIP3      H1             27.5964479124       18.9915895682        5.2822566188  TIP3      3207            0.0000000000
     26971      3343  TIP3      H2             26.9566069138       18.5319822387        3.9920581182  TIP3      3207            0.0000000000
     26972      3344  TIP3      OH2            20.1561572413       12.0300728162        4.3783949929  TIP3      3208            0.0000000000
     26973      3344  TIP3      H1             20.8442744248       12.6855894209        4.1976334478  TIP3      3208            0.0000000000
     26974      3344  TIP3      H2             19.4219044346       12.3426529693        3.8263593346  TIP3      3208            0.0000000000
     26975      3345  TIP3      OH2            19.5681295475       17.9971471766        9.4937615720  TIP3      3209            0.0000000000
     26976      3345  TIP3      H1             18.8089815244       17.4964629669        9.1105113540  TIP3      3209            0.0000000000
     26977      3345  TIP3      H2             19.7923474238       17.4441579926       10.2726918814  TIP3      3209            0.0000000000
     26978      3346  TIP3      OH2            20.2452523646       16.3866898636       11.6930574711  TIP3      3210            0.0000000000
     26979      3346  TIP3      H1             19.9922209839       15.4594297745       11.8495922640  TIP3      3210            0.0000000000
     26980      3346  TIP3      H2             20.8143782178       16.5699209578       12.4625691543  TIP3      3210            0.0000000000
     26981      3347  TIP3      OH2            37.2390139820       16.5015410161       14.1007244597  TIP3      3211            0.0000000000
     26982      3347  TIP3      H1             37.7274939609       16.9469778243       14.8187854301  TIP3      3211            0.0000000000
     26983      3347  TIP3      H2             37.3306231194       17.1540692958       13.3891808950  TIP3      3211            0.0000000000
     26984      3348  TIP3      OH2            37.4621969425       16.8418370073       17.2497305466  TIP3      3212            0.0000000000
     26985      3348  TIP3      H1             37.0720630976       16.1100304524       16.7372127985  TIP3      3212            0.0000000000
     26986      3348  TIP3      H2             37.6380540340       16.3695584147       18.0839556522  TIP3      3212            0.0000000000
     26987      3349  TIP3      OH2            35.9719232775       12.5746938836       22.0143086221  TIP3      3213            0.0000000000
     26988      3349  TIP3      H1             35.1580802081       13.0905734353       22.0608983451  TIP3      3213            0.0000000000
     26989      3349  TIP3      H2             36.6257713213       13.1965581868       22.4090064788  TIP3      3213            0.0000000000
     26990      3350  TIP3      OH2            36.4354985948       11.2204940626        7.1789538392  TIP3      3214            0.0000000000
     26991      3350  TIP3      H1             37.2876127625       11.6790531342        7.3410666102  TIP3      3214            0.0000000000
     26992      3350  TIP3      H2             36.4894729382       10.5228665733        7.8715555212  TIP3      3214            0.0000000000
     26993      3351  TIP3      OH2            36.9741398332        9.3560594368        9.1615248783  TIP3      3215            0.0000000000
     26994      3351  TIP3      H1             36.3725013369        8.6969565037        9.5769078782  TIP3      3215            0.0000000000
     26995      3351  TIP3      H2             37.6786966009        9.3767086759        9.8324448843  TIP3      3215            0.0000000000
     26996      3352  TIP3      OH2            36.8817118442       11.9027584103       13.8933770214  TIP3      3216            0.0000000000
     26997      3352  TIP3      H1             37.5423620621       11.1795029026       13.7419129444  TIP3      3216            0.0000000000
     26998      3352  TIP3      H2             37.2421695629       12.6315802943       13.3556319397  TIP3      3216            0.0000000000
     26999      3353  TIP3      OH2            35.7889324549       14.5556323617       16.3962638112  TIP3      3217            0.0000000000
     27000      3353  TIP3      H1             35.1386908226       15.0830903352       16.9107732439  TIP3      3217            0.0000000000
     27001      3353  TIP3      H2             35.2620923459       14.1993531093       15.6408512001  TIP3      3217            0.0000000000
     27002      3354  TIP3      OH2            37.6325183283        9.2359653459        5.4330889711  TIP3      3218            0.0000000000
     27003      3354  TIP3      H1             36.7579834065        9.3270654298        5.0243141740  TIP3      3218            0.0000000000
     27004      3354  TIP3      H2             37.5812633900        9.9374399210        6.1088328549  TIP3      3218            0.0000000000
     27005      3355  TIP3      OH2            37.1102111814        6.1608405539        4.0238931843  TIP3      3219            0.0000000000
     27006      3355  TIP3      H1             37.1506743925        7.0279439393        3.5512990185  TIP3      3219            0.0000000000
     27007      3355  TIP3      H2             36.2492922418        5.8238136250        3.7457952586  TIP3      3219            0.0000000000
     27008      3356  TIP3      OH2            35.4130958867        7.5193414622       10.4485050014  TIP3      3220            0.0000000000
     27009      3356  TIP3      H1             34.9592378540        6.7249827285       10.1111899091  TIP3      3220            0.0000000000
     27010      3356  TIP3      H2             34.9064841094        7.6881575365       11.2627431729  TIP3      3220            0.0000000000
     27011      3357  TIP3      OH2            19.8859068663        9.8166137559       13.9829353629  TIP3      3221            0.0000000000
     27012      3357  TIP3      H1             19.9013514552        9.4608230557       13.0628533239  TIP3      3221            0.0000000000
     27013      3357  TIP3      H2             20.8025638162        9.5984796483       14.2759111599  TIP3      3221            0.0000000000
     27014      3358  TIP3      OH2            35.9422984417        9.5232871357       19.7943496624  TIP3      3222            0.0000000000
     27015      3358  TIP3      H1             36.4260615087        8.6746371253       19.8002714507  TIP3      3222            0.0000000000
     27016      3358  TIP3      H2             36.6708615347       10.1658590434       19.8534893858  TIP3      3222            0.0000000000
     27017      3359  TIP3      OH2            37.3471239396        7.0318030878       20.1742921288  TIP3      3223            0.0000000000
     27018      3359  TIP3      H1             36.4589598588        6.6023751582       20.1290168877  TIP3      3223            0.0000000000
     27019      3359  TIP3      H2             37.8677227560        6.2341599859       20.4147894076  TIP3      3223            0.0000000000
     27020      3360  TIP3      OH2            34.5651960385        5.6501121280        8.6059428160  TIP3      3224            0.0000000000
     27021      3360  TIP3      H1             34.8592752705        4.7093410598        8.5888421784  TIP3      3224            0.0000000000
     27022      3360  TIP3      H2             35.3585589307        6.0622975897        8.1936976484  TIP3      3224            0.0000000000
     27023      3361  TIP3      OH2            35.6143308365        6.0368008186       13.8220266015  TIP3      3225            0.0000000000
     27024      3361  TIP3      H1             36.5456475180        6.1189162290       14.1439427006  TIP3      3225            0.0000000000
     27025      3361  TIP3      H2             35.2430677396        5.4534127663       14.4954111073  TIP3      3225            0.0000000000
     27026      3362  TIP3      OH2            35.6577431741        6.6893073550       16.5996344802  TIP3      3226            0.0000000000
     27027      3362  TIP3      H1             34.8429262227        6.9458782477       17.0653599142  TIP3      3226            0.0000000000
     27028      3362  TIP3      H2             36.1098323593        7.5508494917       16.5040555084  TIP3      3226            0.0000000000
     27029      3363  TIP3      OH2            19.6786320225        4.8232966991       20.1193333426  TIP3      3227            0.0000000000
     27030      3363  TIP3      H1             20.6048296697        4.7330147764       20.4303402290  TIP3      3227            0.0000000000
     27031      3363  TIP3      H2             19.2386620663        4.0873508845       20.5489315327  TIP3      3227            0.0000000000
     27032      3364  TIP3      OH2            35.3596136152        3.1024234985        8.7396807800  TIP3      3228            0.0000000000
     27033      3364  TIP3      H1             35.5256995488        2.7370050823        9.6281792541  TIP3      3228            0.0000000000
     27034      3364  TIP3      H2             34.5925424820        2.5530256495        8.4533940686  TIP3      3228            0.0000000000
     27035      3365  TIP3      OH2            21.2141721128        3.1643634789       13.1327289679  TIP3      3229            0.0000000000
     27036      3365  TIP3      H1             21.6663396782        2.3491300479       12.8177737637  TIP3      3229            0.0000000000
     27037      3365  TIP3      H2             21.9408020907        3.8187182173       13.1459894337  TIP3      3229            0.0000000000
     27038      3366  TIP3      OH2            19.3375363229        6.2202239371       14.2942286395  TIP3      3230            0.0000000000
     27039      3366  TIP3      H1             19.7526957994        5.9606563187       13.4471148141  TIP3      3230            0.0000000000
     27040      3366  TIP3      H2             20.1056432790        6.5827745990       14.7491925495  TIP3      3230            0.0000000000
     27041      3367  TIP3      OH2            36.5421240569        2.3676390376       20.6901301929  TIP3      3231            0.0000000000
     27042      3367  TIP3      H1             35.9943213398        2.5153235513       21.4999425010  TIP3      3231            0.0000000000
     27043      3367  TIP3      H2             35.9519207967        2.6588281508       19.9731818278  TIP3      3231            0.0000000000
     27044      3368  TIP3      OH2            37.3665437467        2.3412919682        4.9664053275  TIP3      3232            0.0000000000
     27045      3368  TIP3      H1             37.8665751424        1.6439383418        4.5079022497  TIP3      3232            0.0000000000
     27046      3368  TIP3      H2             37.9058259146        3.1200812009        4.7653245495  TIP3      3232            0.0000000000
     27047      3369  TIP3      OH2            19.0187184800        2.7007316281        7.5685425234  TIP3      3233            0.0000000000
     27048      3369  TIP3      H1             18.6482187637        3.3817874119        8.1445982921  TIP3      3233            0.0000000000
     27049      3369  TIP3      H2             19.6297043149        3.2673695726        7.0416604976  TIP3      3233            0.0000000000
     27050      3370  TIP3      OH2            34.4088317166       17.3754873697       10.1892057737  TIP3      3234            0.0000000000
     27051      3370  TIP3      H1             35.1639987980       17.2345957459        9.5730004941  TIP3      3234            0.0000000000
     27052      3370  TIP3      H2             34.8187997390       17.9366958548       10.8757724201  TIP3      3234            0.0000000000
     27053      3371  TIP3      OH2            19.2621223291        1.0993565363       15.5826704560  TIP3      3235            0.0000000000
     27054      3371  TIP3      H1             19.0984090683        1.0650720947       16.5413486638  TIP3      3235            0.0000000000
     27055      3371  TIP3      H2             18.6304056837        1.7741643875       15.2820666088  TIP3      3235            0.0000000000
     27056      3372  TIP3      OH2            21.8545867593       14.3467466021       20.6848223993  TIP3      3236            0.0000000000
     27057      3372  TIP3      H1             21.4146869927       14.1004754379       19.8481248931  TIP3      3236            0.0000000000
     27058      3372  TIP3      H2             21.3794890295       13.7846143080       21.3318226429  TIP3      3236            0.0000000000
     27059      3373  TIP3      OH2            24.3869232843       15.7557559823       17.0059989448  TIP3      3237            0.0000000000
     27060      3373  TIP3      H1             24.4664036882       16.6814938864       16.6777369995  TIP3      3237            0.0000000000
     27061      3373  TIP3      H2             25.3337709099       15.5292527390       16.9840835319  TIP3      3237            0.0000000000
     27062      3374  TIP3      OH2            28.9310212283       16.9852784604       19.6720285735  TIP3      3238            0.0000000000
     27063      3374  TIP3      H1             29.1397268693       16.7302585964       20.5988217501  TIP3      3238            0.0000000000
     27064      3374  TIP3      H2             29.8231151444       17.3194524021       19.3984907427  TIP3      3238            0.0000000000
     27065      3375  TIP3      OH2            31.2452601899       18.1047469610       19.1455270125  TIP3      3239            0.0000000000
     27066      3375  TIP3      H1             31.9868127936       18.2750610811       18.5480650628  TIP3      3239            0.0000000000
     27067      3375  TIP3      H2             31.5213952297       18.5492201506       19.9694308850  TIP3      3239            0.0000000000
     27068      3376  TIP3      OH2            35.5455228841        0.4644890888       17.9278346271  TIP3      3240            0.0000000000
     27069      3376  TIP3      H1             34.5806968092        0.6160513002       17.9784407593  TIP3      3240            0.0000000000
     27070      3376  TIP3      H2             35.6607260358       -0.1479156245       17.1771711666  TIP3      3240            0.0000000000
     27071      3377  TIP3      OH2            21.7034656407       18.7432657610       16.6052835267  TIP3      3241            0.0000000000
     27072      3377  TIP3      H1             20.8501420845       19.0150466812       16.1973876249  TIP3      3241            0.0000000000
     27073      3377  TIP3      H2             21.8086861360       19.4688383129       17.2432936993  TIP3      3241            0.0000000000
     27074      3378  TIP3      OH2            24.3793021477       18.2180137996       15.9631023155  TIP3      3242            0.0000000000
     27075      3378  TIP3      H1             23.4211017194       18.3814460909       16.1482003324  TIP3      3242            0.0000000000
     27076      3378  TIP3      H2             24.4184568377       18.5310445415       15.0427713546  TIP3      3242            0.0000000000
     27077      3379  TIP3      OH2            28.9767710885       17.8896583618       15.2003131755  TIP3      3243            0.0000000000
     27078      3379  TIP3      H1             28.2944026194       18.5304024178       14.9352867680  TIP3      3243            0.0000000000
     27079      3379  TIP3      H2             29.4416580642       18.4304700532       15.8781664656  TIP3      3243            0.0000000000
     27080      3380  TIP3      OH2            31.4671645215       16.4465121789       16.3449832637  TIP3      3244            0.0000000000
     27081      3380  TIP3      H1             30.7226818227       16.7434609344       15.7977107150  TIP3      3244            0.0000000000
     27082      3380  TIP3      H2             32.0918757237       17.1851215664       16.1666705115  TIP3      3244            0.0000000000
     27083      3381  TIP3      OH2            33.5972817908       18.0569968052       15.8650818901  TIP3      3245            0.0000000000
     27084      3381  TIP3      H1             33.6230825982       18.9418309655       15.4660755113  TIP3      3245            0.0000000000
     27085      3381  TIP3      H2             33.9713671249       17.5243894824       15.1187492396  TIP3      3245            0.0000000000
     27086      3382  TIP3      OH2            21.5983380801       16.9993413475       14.0507946171  TIP3      3246            0.0000000000
     27087      3382  TIP3      H1             21.3770482548       16.2145281921       14.5831555518  TIP3      3246            0.0000000000
     27088      3382  TIP3      H2             22.5017232760       16.7732427010       13.7266421751  TIP3      3246            0.0000000000
     27089      3383  TIP3      OH2            23.7845624542       16.3630122057       12.5635640006  TIP3      3247            0.0000000000
     27090      3383  TIP3      H1             23.6138775754       15.3964982447       12.4823165374  TIP3      3247            0.0000000000
     27091      3383  TIP3      H2             24.6614923084       16.3250806996       13.0023461732  TIP3      3247            0.0000000000
     27092      3384  TIP3      OH2            25.9886130379       16.1264331328       13.9281395129  TIP3      3248            0.0000000000
     27093      3384  TIP3      H1             26.6282536347       15.4844690559       13.5965502179  TIP3      3248            0.0000000000
     27094      3384  TIP3      H2             26.2531356653       16.1558835836       14.8791350052  TIP3      3248            0.0000000000
     27095      3385  TIP3      OH2            29.8966579463        2.0070943921       12.7294753166  TIP3      3249            0.0000000000
     27096      3385  TIP3      H1             29.0258840772        1.9880926665       13.1759248292  TIP3      3249            0.0000000000
     27097      3385  TIP3      H2             30.0516772234        1.0487845512       12.6627408410  TIP3      3249            0.0000000000
     27098      3386  TIP3      OH2            35.4325503070        0.0894029408       13.0495779897  TIP3      3250            0.0000000000
     27099      3386  TIP3      H1             36.0110170265        0.4113106367       12.3317138664  TIP3      3250            0.0000000000
     27100      3386  TIP3      H2             34.6396450713       -0.2039416535       12.5880245977  TIP3      3250            0.0000000000
     27101      3387  TIP3      OH2            36.7553448423        1.6064069646       10.8233191808  TIP3      3251            0.0000000000
     27102      3387  TIP3      H1             36.9462642854        1.3254347994        9.8994329293  TIP3      3251            0.0000000000
     27103      3387  TIP3      H2             37.1811152733        2.4938835386       10.8551706981  TIP3      3251            0.0000000000
     27104      3388  TIP3      OH2            21.7586376846        0.7999936878        9.7089878267  TIP3      3252            0.0000000000
     27105      3388  TIP3      H1             20.9301736793        0.7001499718        9.2004037363  TIP3      3252            0.0000000000
     27106      3388  TIP3      H2             22.3488914406        0.1801747718        9.2287456456  TIP3      3252            0.0000000000
     27107      3389  TIP3      OH2            20.5342183054        0.6210794786        6.6993622909  TIP3      3253            0.0000000000
     27108      3389  TIP3      H1             21.1887052391        1.1315272450        6.2061693495  TIP3      3253            0.0000000000
     27109      3389  TIP3      H2             19.9728383897        1.3200641615        7.1094937091  TIP3      3253            0.0000000000
     27110      3390  TIP3      OH2            25.9714921868        0.8222532309        9.2285602725  TIP3      3254            0.0000000000
     27111      3390  TIP3      H1             26.9158493233        0.9868250919        9.0938329717  TIP3      3254            0.0000000000
     27112      3390  TIP3      H2             26.0443848984        0.1015615927        9.8680559614  TIP3      3254            0.0000000000
     27113      3391  TIP3      OH2            31.7936405146        0.5302358503       10.7307970377  TIP3      3255            0.0000000000
     27114      3391  TIP3      H1             31.1999762988        1.2460370308       10.4732043250  TIP3      3255            0.0000000000
     27115      3391  TIP3      H2             31.3007932551        0.0710317799       11.4411708923  TIP3      3255            0.0000000000
     27116      3392  TIP3      OH2            33.3427844967        1.5635861741        7.8815928174  TIP3      3256            0.0000000000
     27117      3392  TIP3      H1             32.5993183650        1.7009470787        7.2727886497  TIP3      3256            0.0000000000
     27118      3392  TIP3      H2             33.2293732729        0.6458419807        8.2115186357  TIP3      3256            0.0000000000
     27119      3393  TIP3      OH2            20.6677020827       16.4393391679        6.7456401938  TIP3      3257            0.0000000000
     27120      3393  TIP3      H1             19.7327231933       16.5058069699        6.4741130335  TIP3      3257            0.0000000000
     27121      3393  TIP3      H2             20.8877321724       17.3987330031        6.7113644323  TIP3      3257            0.0000000000
     27122      3394  TIP3      OH2            22.3937444003        1.5898118168        4.3770998899  TIP3      3258            0.0000000000
     27123      3394  TIP3      H1             22.9214947843        2.0281159893        3.6826058047  TIP3      3258            0.0000000000
     27124      3394  TIP3      H2             23.0386780949        1.5408347643        5.1069477641  TIP3      3258            0.0000000000
     27125      3395  TIP3      OH2            27.5617525230        2.9178761400        7.0194492640  TIP3      3259            0.0000000000
     27126      3395  TIP3      H1             27.7726960796        2.0867831817        7.4749142130  TIP3      3259            0.0000000000
     27127      3395  TIP3      H2             28.0444327833        3.5634405899        7.5816404158  TIP3      3259            0.0000000000
     27128      3396  TIP3      OH2            29.5620612840       17.9421904529        4.9079808607  TIP3      3260            0.0000000000
     27129      3396  TIP3      H1             30.5402451529       18.0028541803        4.8357557962  TIP3      3260            0.0000000000
     27130      3396  TIP3      H2             29.4072275262       17.1188340876        4.4184362324  TIP3      3260            0.0000000000
     27131      3397  TIP3      OH2            36.2445007599       16.9478358442        8.3415417398  TIP3      3261            0.0000000000
     27132      3397  TIP3      H1             35.8254683322       16.2464517818        7.7796939954  TIP3      3261            0.0000000000
     27133      3397  TIP3      H2             36.1769237658       17.6869536956        7.6958361193  TIP3      3261            0.0000000000
     27134      3398  TIP3      OH2            21.2653185892        1.4322596142       19.1806031949  TIP3      3262            0.0000000000
     27135      3398  TIP3      H1             20.8807273419        0.5988924987       18.8409918399  TIP3      3262            0.0000000000
     27136      3398  TIP3      H2             21.8851057506        1.0898444823       19.8437026568  TIP3      3262            0.0000000000
     27137      3399  TIP3      OH2            23.6659611622       66.6013165504       20.6300406606  TIP3      3263            0.0000000000
     27138      3399  TIP3      H1             24.4803622452       66.5534149217       21.1596302590  TIP3      3263            0.0000000000
     27139      3399  TIP3      H2             23.2026766433       65.7539720029       20.8132266287  TIP3      3263            0.0000000000
     27140      3400  TIP3      OH2            22.8617596788       17.8848096657        4.0157321168  TIP3      3264            0.0000000000
     27141      3400  TIP3      H1             22.1218665380       18.5057212678        4.1001486161  TIP3      3264            0.0000000000
     27142      3400  TIP3      H2             22.6173679380       17.2023128851        4.6511534273  TIP3      3264            0.0000000000
     27143      3401  TIP3      OH2            30.9151755898        0.4913343181       21.5223613170  TIP3      3265            0.0000000000
     27144      3401  TIP3      H1             30.4503532000        0.5030505850       22.3796110065  TIP3      3265            0.0000000000
     27145      3401  TIP3      H2             30.7397916574       -0.4018660180       21.2054576544  TIP3      3265            0.0000000000
     27146      3402  TIP3      OH2            35.9476936792       15.7601879437       19.9132414764  TIP3      3266            0.0000000000
     27147      3402  TIP3      H1             35.2537917060       15.7374773587       19.2135348389  TIP3      3266            0.0000000000
     27148      3402  TIP3      H2             35.8795105520       16.6802522213       20.2010707177  TIP3      3266            0.0000000000
     27149      3403  TIP3      OH2            50.2271616879        9.8011903967        9.9521921034  TIP3      3267            0.0000000000
     27150      3403  TIP3      H1             50.0023305436       10.7271185816       10.1734362875  TIP3      3267            0.0000000000
     27151      3403  TIP3      H2             49.5442669467        9.5939681110        9.2899604882  TIP3      3267            0.0000000000
     27152      3404  TIP3      OH2            48.9910283232        8.6016925268       13.2746027718  TIP3      3268            0.0000000000
     27153      3404  TIP3      H1             48.8920849690        8.4805025883       14.2381296193  TIP3      3268            0.0000000000
     27154      3404  TIP3      H2             48.0761839326        8.6012365977       12.9412969482  TIP3      3268            0.0000000000
     27155      3405  TIP3      OH2            40.8474143992        8.7626227392       14.9059859654  TIP3      3269            0.0000000000
     27156      3405  TIP3      H1             40.8530094170        8.1896816814       15.6922402878  TIP3      3269            0.0000000000
     27157      3405  TIP3      H2             41.7634658429        8.6629033506       14.5698414015  TIP3      3269            0.0000000000
     27158      3406  TIP3      OH2            52.4501380522       11.8245706207       11.9805555856  TIP3      3270            0.0000000000
     27159      3406  TIP3      H1             52.1497209805       11.0785193547       12.5241594992  TIP3      3270            0.0000000000
     27160      3406  TIP3      H2             52.4849463414       12.5601203428       12.6225742424  TIP3      3270            0.0000000000
     27161      3407  TIP3      OH2            42.2825423378       13.5404708269       12.7590168904  TIP3      3271            0.0000000000
     27162      3407  TIP3      H1             41.9069811515       12.6568202167       12.5764422708  TIP3      3271            0.0000000000
     27163      3407  TIP3      H2             43.1790714523       13.2599001774       13.0363041416  TIP3      3271            0.0000000000
     27164      3408  TIP3      OH2            38.5368922678        6.2295924365        9.1829089750  TIP3      3272            0.0000000000
     27165      3408  TIP3      H1             38.2633897968        6.8079188467        9.9134124011  TIP3      3272            0.0000000000
     27166      3408  TIP3      H2             37.6774342180        5.8860264378        8.8862394727  TIP3      3272            0.0000000000
     27167      3409  TIP3      OH2            38.9527544182        8.7690051268       11.2651420501  TIP3      3273            0.0000000000
     27168      3409  TIP3      H1             39.4099117584        7.9385217671       11.5380873747  TIP3      3273            0.0000000000
     27169      3409  TIP3      H2             39.6631169879        9.2980297298       10.8804089869  TIP3      3273            0.0000000000
     27170      3410  TIP3      OH2            49.8120464599       17.1958659284       11.5540138617  TIP3      3274            0.0000000000
     27171      3410  TIP3      H1             50.5412034606       16.5803595490       11.3202093561  TIP3      3274            0.0000000000
     27172      3410  TIP3      H2             49.3277893654       16.6463485085       12.1773950073  TIP3      3274            0.0000000000
     27173      3411  TIP3      OH2            47.1961529219       11.0668092241       14.2793227838  TIP3      3275            0.0000000000
     27174      3411  TIP3      H1             47.3594019362       11.5562014276       13.4631080636  TIP3      3275            0.0000000000
     27175      3411  TIP3      H2             48.1055536385       10.9201282480       14.6142497189  TIP3      3275            0.0000000000
     27176      3412  TIP3      OH2            55.3342256152        2.7685424297       14.4777716633  TIP3      3276            0.0000000000
     27177      3412  TIP3      H1             55.6670856235        3.5929847175       14.8834470031  TIP3      3276            0.0000000000
     27178      3412  TIP3      H2             55.8310432955        2.6783216621       13.6453711310  TIP3      3276            0.0000000000
     27179      3413  TIP3      OH2            50.4301515178        6.0315338603       14.5891090575  TIP3      3277            0.0000000000
     27180      3413  TIP3      H1             50.7186858265        5.0997896760       14.5879129480  TIP3      3277            0.0000000000
     27181      3413  TIP3      H2             50.1816679852        6.1387062974       13.6506062434  TIP3      3277            0.0000000000
     27182      3414  TIP3      OH2            43.6356306708        3.8485052780       11.3105611209  TIP3      3278            0.0000000000
     27183      3414  TIP3      H1             43.8008971261        4.6797440852       10.8115089467  TIP3      3278            0.0000000000
     27184      3414  TIP3      H2             43.1176857009        3.3410038687       10.6511162272  TIP3      3278            0.0000000000
     27185      3415  TIP3      OH2            50.7243281076        3.9102199275        9.8894432336  TIP3      3279            0.0000000000
     27186      3415  TIP3      H1             51.2665940756        4.0241806787       10.7081280380  TIP3      3279            0.0000000000
     27187      3415  TIP3      H2             50.7294478032        4.8064972783        9.5275609830  TIP3      3279            0.0000000000
     27188      3416  TIP3      OH2            39.9826433840        6.4318636690       12.2065778876  TIP3      3280            0.0000000000
     27189      3416  TIP3      H1             40.5674622543        5.9740147361       12.8424080341  TIP3      3280            0.0000000000
     27190      3416  TIP3      H2             40.3212247495        6.0668498374       11.3584832284  TIP3      3280            0.0000000000
     27191      3417  TIP3      OH2            44.7270075437        8.1633086719       11.7034291368  TIP3      3281            0.0000000000
     27192      3417  TIP3      H1             45.5608809848        7.7377301702       12.0003191158  TIP3      3281            0.0000000000
     27193      3417  TIP3      H2             44.4063543657        7.4401606232       11.1210012285  TIP3      3281            0.0000000000
     27194      3418  TIP3      OH2            55.8372817358        4.6139429225       16.4955839112  TIP3      3282            0.0000000000
     27195      3418  TIP3      H1             55.2670422882        5.4106500654       16.4455697386  TIP3      3282            0.0000000000
     27196      3418  TIP3      H2             55.9682046611        4.5408942325       17.4484719923  TIP3      3282            0.0000000000
     27197      3419  TIP3      OH2            42.5785341798        3.0320924120       15.3159369884  TIP3      3283            0.0000000000
     27198      3419  TIP3      H1             42.2468432963        3.6335042627       14.6095569251  TIP3      3283            0.0000000000
     27199      3419  TIP3      H2             41.9236925034        3.1633519382       16.0303566895  TIP3      3283            0.0000000000
     27200      3420  TIP3      OH2            49.3360225008       12.2870646779        8.8064207422  TIP3      3284            0.0000000000
     27201      3420  TIP3      H1             49.1427733659       12.2890800659        7.8497687573  TIP3      3284            0.0000000000
     27202      3420  TIP3      H2             48.9233838037       13.1303862512        9.0981361258  TIP3      3284            0.0000000000
     27203      3421  TIP3      OH2            44.5325083194       10.6920247281       15.3229915253  TIP3      3285            0.0000000000
     27204      3421  TIP3      H1             44.0285808636       11.4748379396       15.6570974838  TIP3      3285            0.0000000000
     27205      3421  TIP3      H2             45.2584133135       11.1177775947       14.8264537801  TIP3      3285            0.0000000000
     27206      3422  TIP3      OH2            52.5628394693        4.1260211161       11.8004513798  TIP3      3286            0.0000000000
     27207      3422  TIP3      H1             52.9418986775        3.3964311858       12.3150849129  TIP3      3286            0.0000000000
     27208      3422  TIP3      H2             53.3646148684        4.6092129737       11.5488197607  TIP3      3286            0.0000000000
     27209      3423  TIP3      OH2            41.9293437507        4.8915730337       13.4158685025  TIP3      3287            0.0000000000
     27210      3423  TIP3      H1             42.4889664742        5.5226361963       13.9326143601  TIP3      3287            0.0000000000
     27211      3423  TIP3      H2             42.5113362702        4.7007199644       12.6496753065  TIP3      3287            0.0000000000
     27212      3424  TIP3      OH2            43.3959736776       12.9469768347       16.1976866184  TIP3      3288            0.0000000000
     27213      3424  TIP3      H1             43.2256992106       13.8216986966       15.8445310997  TIP3      3288            0.0000000000
     27214      3424  TIP3      H2             42.5395750031       12.7669560890       16.6643527261  TIP3      3288            0.0000000000
     27215      3425  TIP3      OH2            39.1008943609       11.8423878004        7.1355686183  TIP3      3289            0.0000000000
     27216      3425  TIP3      H1             39.0561894679       12.2060917707        6.2187103636  TIP3      3289            0.0000000000
     27217      3425  TIP3      H2             39.2554860116       12.6610391130        7.6712922129  TIP3      3289            0.0000000000
     27218      3426  TIP3      OH2            52.1950838801       14.2635096837       13.3386006979  TIP3      3290            0.0000000000
     27219      3426  TIP3      H1             51.9520740071       14.5687406292       12.4377730384  TIP3      3290            0.0000000000
     27220      3426  TIP3      H2             52.7061085201       15.0555282439       13.5915689453  TIP3      3290            0.0000000000
     27221      3427  TIP3      OH2            52.7919963836        2.7198097904       15.6660904320  TIP3      3291            0.0000000000
     27222      3427  TIP3      H1             52.1080820956        2.6504067348       14.9569311979  TIP3      3291            0.0000000000
     27223      3427  TIP3      H2             53.6450719254        2.6593640051       15.1876495318  TIP3      3291            0.0000000000
     27224      3428  TIP3      OH2            46.1260652553        0.8582717713       12.5544443754  TIP3      3292            0.0000000000
     27225      3428  TIP3      H1             46.0983950014       -0.1028986465       12.4160518790  TIP3      3292            0.0000000000
     27226      3428  TIP3      H2             45.2332421716        1.0527952662       12.9242929088  TIP3      3292            0.0000000000
     27227      3429  TIP3      OH2            51.7761597912       15.5099889664       10.9361768469  TIP3      3293            0.0000000000
     27228      3429  TIP3      H1             51.7556862740       14.9047039254       10.1554147511  TIP3      3293            0.0000000000
     27229      3429  TIP3      H2             52.3642546778       16.2407285904       10.6069004153  TIP3      3293            0.0000000000
     27230      3430  TIP3      OH2            52.1600030340       13.5686352349        9.1350044048  TIP3      3294            0.0000000000
     27231      3430  TIP3      H1             51.9060343468       12.9941100258        8.3960680899  TIP3      3294            0.0000000000
     27232      3430  TIP3      H2             52.2267810481       12.9256451417        9.8581642070  TIP3      3294            0.0000000000
     27233      3431  TIP3      OH2            54.2860170754       12.1928608217       17.7542203479  TIP3      3295            0.0000000000
     27234      3431  TIP3      H1             54.3380672862       11.4143785744       17.1618453246  TIP3      3295            0.0000000000
     27235      3431  TIP3      H2             54.2058493208       12.9091310447       17.0893211216  TIP3      3295            0.0000000000
     27236      3432  TIP3      OH2            48.5961634885        9.0276981070        7.4974735013  TIP3      3296            0.0000000000
     27237      3432  TIP3      H1             48.0115964837        9.8096451462        7.3897071250  TIP3      3296            0.0000000000
     27238      3432  TIP3      H2             49.2429899372        9.1514418928        6.7784731699  TIP3      3296            0.0000000000
     27239      3433  TIP3      OH2            48.4731428719        8.2892490016        4.4169170664  TIP3      3297            0.0000000000
     27240      3433  TIP3      H1             49.3114937175        8.4736852713        4.8669608407  TIP3      3297            0.0000000000
     27241      3433  TIP3      H2             48.5706393063        7.3596289470        4.1568480116  TIP3      3297            0.0000000000
     27242      3434  TIP3      OH2            55.5787966136        8.8077666787       15.9201375672  TIP3      3298            0.0000000000
     27243      3434  TIP3      H1             54.8042901509        9.3805240536       15.7028618201  TIP3      3298            0.0000000000
     27244      3434  TIP3      H2             56.2394397944        9.1830338227       15.2989030247  TIP3      3298            0.0000000000
     27245      3435  TIP3      OH2            52.3687262580        9.0932889430        8.4405426491  TIP3      3299            0.0000000000
     27246      3435  TIP3      H1             51.5665806260        9.3371096946        8.9685851578  TIP3      3299            0.0000000000
     27247      3435  TIP3      H2             52.8800720959        8.6196958830        9.1250964968  TIP3      3299            0.0000000000
     27248      3436  TIP3      OH2            51.7334390459        7.4651509791       17.7777636974  TIP3      3300            0.0000000000
     27249      3436  TIP3      H1             51.6505193771        8.4254138525       17.9058761617  TIP3      3300            0.0000000000
     27250      3436  TIP3      H2             51.0314116693        7.3254283542       17.1277074492  TIP3      3300            0.0000000000
     27251      3437  TIP3      OH2            43.2930718827        9.7213923384       10.1290488598  TIP3      3301            0.0000000000
     27252      3437  TIP3      H1             43.3783694150        9.2739033491        9.2594523558  TIP3      3301            0.0000000000
     27253      3437  TIP3      H2             43.8977600634        9.1964491300       10.6976698362  TIP3      3301            0.0000000000
     27254      3438  TIP3      OH2            45.0482350801       13.1281937563       12.6322418926  TIP3      3302            0.0000000000
     27255      3438  TIP3      H1             44.7553823204       13.4799941083       11.7656037005  TIP3      3302            0.0000000000
     27256      3438  TIP3      H2             45.4695410296       12.3155512533       12.3231091634  TIP3      3302            0.0000000000
     27257      3439  TIP3      OH2            43.4111375839        8.6689339711       14.0356940520  TIP3      3303            0.0000000000
     27258      3439  TIP3      H1             43.8691797942        8.7178625290       13.1641776202  TIP3      3303            0.0000000000
     27259      3439  TIP3      H2             43.8362968440        9.4166838587       14.5076558366  TIP3      3303            0.0000000000
     27260      3440  TIP3      OH2            49.5509891682       14.0086789747       14.5482388123  TIP3      3304            0.0000000000
     27261      3440  TIP3      H1             49.9901871274       14.7061557497       15.0660879384  TIP3      3304            0.0000000000
     27262      3440  TIP3      H2             50.3181974031       13.5292076084       14.1821017184  TIP3      3304            0.0000000000
     27263      3441  TIP3      OH2            44.8300951821       13.0522443150       18.6353380005  TIP3      3305            0.0000000000
     27264      3441  TIP3      H1             44.1677228828       13.6155712937       19.1110428845  TIP3      3305            0.0000000000
     27265      3441  TIP3      H2             44.3733846749       12.9426637002       17.7763256223  TIP3      3305            0.0000000000
     27266      3442  TIP3      OH2            50.9010991597        8.5995126602        6.2170491773  TIP3      3306            0.0000000000
     27267      3442  TIP3      H1             51.5007119821        8.7617379919        6.9875109249  TIP3      3306            0.0000000000
     27268      3442  TIP3      H2             51.3167084871        9.1490146109        5.5197425272  TIP3      3306            0.0000000000
     27269      3443  TIP3      OH2            41.6905132606        9.2238486650       18.1009255184  TIP3      3307            0.0000000000
     27270      3443  TIP3      H1             41.6903367294        9.9073913969       18.7906752324  TIP3      3307            0.0000000000
     27271      3443  TIP3      H2             40.8222108459        8.7944951830       18.2741277970  TIP3      3307            0.0000000000
     27272      3444  TIP3      OH2            48.0163227367       14.7739708552        9.1236947795  TIP3      3308            0.0000000000
     27273      3444  TIP3      H1             48.1365172295       15.5138908236        9.7300577088  TIP3      3308            0.0000000000
     27274      3444  TIP3      H2             47.5949640342       15.1829841022        8.3541165240  TIP3      3308            0.0000000000
     27275      3445  TIP3      OH2            43.1307926447       14.7506784958       19.8042807020  TIP3      3309            0.0000000000
     27276      3445  TIP3      H1             43.2718413900       15.4312087517       19.1137987799  TIP3      3309            0.0000000000
     27277      3445  TIP3      H2             42.1678350342       14.6561846659       19.8029663880  TIP3      3309            0.0000000000
     27278      3446  TIP3      OH2            54.3162220885        0.5627259844        5.8290879320  TIP3      3310            0.0000000000
     27279      3446  TIP3      H1             53.8457000973        1.1723299022        6.4300221334  TIP3      3310            0.0000000000
     27280      3446  TIP3      H2             55.0329858300        1.1708287641        5.5390830107  TIP3      3310            0.0000000000
     27281      3447  TIP3      OH2            42.6909030690        8.5641177307        7.5218810718  TIP3      3311            0.0000000000
     27282      3447  TIP3      H1             42.2456146311        9.3561094429        7.1453924381  TIP3      3311            0.0000000000
     27283      3447  TIP3      H2             41.9663465080        7.9385053525        7.6284092533  TIP3      3311            0.0000000000
     27284      3448  TIP3      OH2            55.8567900730       14.6039198858        4.5539105513  TIP3      3312            0.0000000000
     27285      3448  TIP3      H1             56.0167565990       15.5688103577        4.6550919844  TIP3      3312            0.0000000000
     27286      3448  TIP3      H2             56.7561550387       14.2601848764        4.4568647051  TIP3      3312            0.0000000000
     27287      3449  TIP3      OH2            39.0528495995       11.6290307900       16.8663831668  TIP3      3313            0.0000000000
     27288      3449  TIP3      H1             38.4590128114       11.7225098530       16.1103472049  TIP3      3313            0.0000000000
     27289      3449  TIP3      H2             39.4184217004       10.7461542523       16.6856209706  TIP3      3313            0.0000000000
     27290      3450  TIP3      OH2            38.3250953526       14.0983270186       13.2038108838  TIP3      3314            0.0000000000
     27291      3450  TIP3      H1             38.8688414663       13.8225273417       13.9550684315  TIP3      3314            0.0000000000
     27292      3450  TIP3      H2             37.8186487313       14.8428567579       13.5972374436  TIP3      3314            0.0000000000
     27293      3451  TIP3      OH2            56.7215739028       14.6068105707       19.1875727667  TIP3      3315            0.0000000000
     27294      3451  TIP3      H1             56.4362371514       13.7709746229       18.8001588010  TIP3      3315            0.0000000000
     27295      3451  TIP3      H2             55.9000176327       14.8379897290       19.6883545055  TIP3      3315            0.0000000000
     27296      3452  TIP3      OH2            47.1212596217       14.4424950745       18.4730586791  TIP3      3316            0.0000000000
     27297      3452  TIP3      H1             47.2175738363       15.2364421510       19.0444741382  TIP3      3316            0.0000000000
     27298      3452  TIP3      H2             46.2420591183       14.0738177132       18.7266470416  TIP3      3316            0.0000000000
     27299      3453  TIP3      OH2            48.0297089600       17.9181298830        7.5896850572  TIP3      3317            0.0000000000
     27300      3453  TIP3      H1             48.0028796362       18.0361766539        6.6130089819  TIP3      3317            0.0000000000
     27301      3453  TIP3      H2             48.2178322300       18.8046696588        7.9475310885  TIP3      3317            0.0000000000
     27302      3454  TIP3      OH2            41.7411852692       16.3492436408       10.0882960067  TIP3      3318            0.0000000000
     27303      3454  TIP3      H1             42.1916269607       16.3357680955       10.9728117415  TIP3      3318            0.0000000000
     27304      3454  TIP3      H2             40.9296834126       15.8651403707       10.3027342417  TIP3      3318            0.0000000000
     27305      3455  TIP3      OH2            51.0195971929       17.1837801363        4.5231587203  TIP3      3319            0.0000000000
     27306      3455  TIP3      H1             51.6608561879       16.5159195915        4.1926189942  TIP3      3319            0.0000000000
     27307      3455  TIP3      H2             51.4357893245       17.4417987038        5.3665492822  TIP3      3319            0.0000000000
     27308      3456  TIP3      OH2            50.7750119025       17.2357836154        7.9117317675  TIP3      3320            0.0000000000
     27309      3456  TIP3      H1             49.8182885696       17.2930746884        7.7127904814  TIP3      3320            0.0000000000
     27310      3456  TIP3      H2             50.8800739137       16.3066044253        8.1462542720  TIP3      3320            0.0000000000
     27311      3457  TIP3      OH2            53.8026007240        6.4630256847       19.4713633398  TIP3      3321            0.0000000000
     27312      3457  TIP3      H1             53.1058635314        6.8235117697       18.8867575822  TIP3      3321            0.0000000000
     27313      3457  TIP3      H2             53.8278162017        5.5302601383       19.1742671847  TIP3      3321            0.0000000000
     27314      3458  TIP3      OH2            41.3451223413       12.8934496392       17.9225314337  TIP3      3322            0.0000000000
     27315      3458  TIP3      H1             41.6518792891       12.5987340023       18.8138375131  TIP3      3322            0.0000000000
     27316      3458  TIP3      H2             40.3988431966       12.6505575790       17.9884283754  TIP3      3322            0.0000000000
     27317      3459  TIP3      OH2            43.7638671433        1.2390297993       13.7717207760  TIP3      3323            0.0000000000
     27318      3459  TIP3      H1             42.9932439460        1.3580299739       13.1704398895  TIP3      3323            0.0000000000
     27319      3459  TIP3      H2             43.4801469257        1.8376003887       14.4908578044  TIP3      3323            0.0000000000
     27320      3460  TIP3      OH2            48.5012848545        1.0193896674       17.2590837019  TIP3      3324            0.0000000000
     27321      3460  TIP3      H1             48.7789352117        0.1111931133       17.3845914701  TIP3      3324            0.0000000000
     27322      3460  TIP3      H2             47.5670553147        1.0167995747       17.5218668195  TIP3      3324            0.0000000000
     27323      3461  TIP3      OH2            50.9714117371        4.7134881171       18.8169611144  TIP3      3325            0.0000000000
     27324      3461  TIP3      H1             50.1893334936        4.5725499249       19.3898950255  TIP3      3325            0.0000000000
     27325      3461  TIP3      H2             51.0910884197        5.6722087445       18.8455278226  TIP3      3325            0.0000000000
     27326      3462  TIP3      OH2            52.1426725952       10.0447987272        4.2780964492  TIP3      3326            0.0000000000
     27327      3462  TIP3      H1             52.4074596579       10.3900918811        3.4119599390  TIP3      3326            0.0000000000
     27328      3462  TIP3      H2             52.6554693951       10.6170267909        4.8781582269  TIP3      3326            0.0000000000
     27329      3463  TIP3      OH2            47.9190165580        3.6540377074        4.5923667084  TIP3      3327            0.0000000000
     27330      3463  TIP3      H1             47.4237588831        3.3090259374        5.3764276338  TIP3      3327            0.0000000000
     27331      3463  TIP3      H2             48.0874665180        2.8309921590        4.1182588972  TIP3      3327            0.0000000000
     27332      3464  TIP3      OH2            43.8372531928        6.0976305645       14.8804215621  TIP3      3328            0.0000000000
     27333      3464  TIP3      H1             43.3398950828        6.1810936217       15.7167624293  TIP3      3328            0.0000000000
     27334      3464  TIP3      H2             43.7595898376        7.0041703036       14.5286144323  TIP3      3328            0.0000000000
     27335      3465  TIP3      OH2            43.8003507858        6.1486967115       10.0879570607  TIP3      3329            0.0000000000
     27336      3465  TIP3      H1             42.8447038166        6.1458683991        9.8478030127  TIP3      3329            0.0000000000
     27337      3465  TIP3      H2             44.1871085903        6.0231966759        9.1937094703  TIP3      3329            0.0000000000
     27338      3466  TIP3      OH2            49.5904107986        6.9135770670        8.7156738762  TIP3      3330            0.0000000000
     27339      3466  TIP3      H1             49.0970321624        7.6665855618        8.2968619277  TIP3      3330            0.0000000000
     27340      3466  TIP3      H2             50.2491624844        6.7532504594        8.0234799288  TIP3      3330            0.0000000000
     27341      3467  TIP3      OH2            47.7549785279        7.3499166219       20.2279589303  TIP3      3331            0.0000000000
     27342      3467  TIP3      H1             47.2913734243        6.4943866188       20.3504827036  TIP3      3331            0.0000000000
     27343      3467  TIP3      H2             48.5184267933        7.2247733036       20.8230392506  TIP3      3331            0.0000000000
     27344      3468  TIP3      OH2            50.0179430308        6.4211645130       11.7372130091  TIP3      3332            0.0000000000
     27345      3468  TIP3      H1             49.7636846129        7.3345735806       11.5060856319  TIP3      3332            0.0000000000
     27346      3468  TIP3      H2             50.0598833818        6.0338621923       10.8535084484  TIP3      3332            0.0000000000
     27347      3469  TIP3      OH2            41.1420964918        6.1185329909       16.0111877420  TIP3      3333            0.0000000000
     27348      3469  TIP3      H1             41.2685001708        6.3151068492       16.9531056580  TIP3      3333            0.0000000000
     27349      3469  TIP3      H2             40.6632629526        5.2729085924       16.0425587859  TIP3      3333            0.0000000000
     27350      3470  TIP3      OH2            44.5547077532        3.7647325911        4.0098800427  TIP3      3334            0.0000000000
     27351      3470  TIP3      H1             44.2812944714        3.2020726952        4.7636540440  TIP3      3334            0.0000000000
     27352      3470  TIP3      H2             44.7511150278        4.5990866355        4.4593548215  TIP3      3334            0.0000000000
     27353      3471  TIP3      OH2            38.3334750818        3.8131629933       10.9888403814  TIP3      3335            0.0000000000
     27354      3471  TIP3      H1             38.8966023205        3.6054450496       11.7604267212  TIP3      3335            0.0000000000
     27355      3471  TIP3      H2             38.8645769008        3.5096396238       10.2475729119  TIP3      3335            0.0000000000
     27356      3472  TIP3      OH2            39.5921309691        4.5582966380        6.5475607199  TIP3      3336            0.0000000000
     27357      3472  TIP3      H1             40.0204747226        4.9984344159        5.7875627999  TIP3      3336            0.0000000000
     27358      3472  TIP3      H2             39.2805680126        5.3363255096        7.0339734443  TIP3      3336            0.0000000000
     27359      3473  TIP3      OH2            49.2582515453        8.1178765959       15.9572189804  TIP3      3337            0.0000000000
     27360      3473  TIP3      H1             49.8506185362        7.5029075994       15.4621631421  TIP3      3337            0.0000000000
     27361      3473  TIP3      H2             48.7812725059        7.4756226670       16.5408402956  TIP3      3337            0.0000000000
     27362      3474  TIP3      OH2            46.6100445815        3.6864403958       10.9027172029  TIP3      3338            0.0000000000
     27363      3474  TIP3      H1             45.7065120312        3.3882831904       11.1358545933  TIP3      3338            0.0000000000
     27364      3474  TIP3      H2             47.1495012667        3.3505218506       11.6422251475  TIP3      3338            0.0000000000
     27365      3475  TIP3      OH2            41.0566795321        5.6582109917        9.7762589221  TIP3      3339            0.0000000000
     27366      3475  TIP3      H1             40.1496998261        5.7634269461        9.4125547870  TIP3      3339            0.0000000000
     27367      3475  TIP3      H2             41.2823438046        4.7540698391        9.4643188802  TIP3      3339            0.0000000000
     27368      3476  TIP3      OH2            44.2031199830        5.4835852376        7.4499668795  TIP3      3340            0.0000000000
     27369      3476  TIP3      H1             45.1755058429        5.4855244562        7.4053237261  TIP3      3340            0.0000000000
     27370      3476  TIP3      H2             43.9257980056        6.1117954193        6.7558266856  TIP3      3340            0.0000000000
     27371      3477  TIP3      OH2            50.4229848536        2.8674053632       14.2875049856  TIP3      3341            0.0000000000
     27372      3477  TIP3      H1             50.0372445480        3.2608212917       15.0935617833  TIP3      3341            0.0000000000
     27373      3477  TIP3      H2             49.6718161509        2.8658657282       13.6624330887  TIP3      3341            0.0000000000
     27374      3478  TIP3      OH2            43.1499437235        6.9635215119        4.8060374797  TIP3      3342            0.0000000000
     27375      3478  TIP3      H1             42.5855129469        6.8141915229        4.0230214624  TIP3      3342            0.0000000000
     27376      3478  TIP3      H2             44.0470434008        7.0550398499        4.4234692729  TIP3      3342            0.0000000000
     27377      3479  TIP3      OH2            53.7285219922       18.4322103364       20.5275815322  TIP3      3343            0.0000000000
     27378      3479  TIP3      H1             53.9244759178       19.1103271270       19.8610152025  TIP3      3343            0.0000000000
     27379      3479  TIP3      H2             54.3966941667       18.6779466776       21.1934139363  TIP3      3343            0.0000000000
     27380      3480  TIP3      OH2            41.5434466006       11.3204077230       20.1793758261  TIP3      3344            0.0000000000
     27381      3480  TIP3      H1             42.2801849562       10.8751878229       20.6145400979  TIP3      3344            0.0000000000
     27382      3480  TIP3      H2             40.7958815919       10.9902638498       20.6972093212  TIP3      3344            0.0000000000
     27383      3481  TIP3      OH2            46.7143896480        6.5433886014       12.4130606284  TIP3      3345            0.0000000000
     27384      3481  TIP3      H1             47.6437201667        6.2560618839       12.3970861301  TIP3      3345            0.0000000000
     27385      3481  TIP3      H2             46.2388058459        5.6961046935       12.3322876562  TIP3      3345            0.0000000000
     27386      3482  TIP3      OH2            41.9369502739        3.2416941085        9.3534005470  TIP3      3346            0.0000000000
     27387      3482  TIP3      H1             41.5157000009        2.3915414182        9.6091540146  TIP3      3346            0.0000000000
     27388      3482  TIP3      H2             42.4782856540        2.9742217628        8.5955538232  TIP3      3346            0.0000000000
     27389      3483  TIP3      OH2            46.9503035770        4.4137100164       14.8966411886  TIP3      3347            0.0000000000
     27390      3483  TIP3      H1             46.5782783431        5.2742851142       14.6528168432  TIP3      3347            0.0000000000
     27391      3483  TIP3      H2             47.6614958210        4.6379901199       15.5179558164  TIP3      3347            0.0000000000
     27392      3484  TIP3      OH2            46.7705112266       10.9229099574        7.2517667089  TIP3      3348            0.0000000000
     27393      3484  TIP3      H1             46.0545065538       10.3761888090        6.8418106521  TIP3      3348            0.0000000000
     27394      3484  TIP3      H2             46.3143843386       11.3076402615        8.0386977892  TIP3      3348            0.0000000000
     27395      3485  TIP3      OH2            54.0850707726       10.8179308466       15.3541199920  TIP3      3349            0.0000000000
     27396      3485  TIP3      H1             54.7681278224       11.3585829954       14.8963403504  TIP3      3349            0.0000000000
     27397      3485  TIP3      H2             53.3885187931       10.8254968577       14.6762483780  TIP3      3349            0.0000000000
     27398      3486  TIP3      OH2            50.5048574701        3.7714949005        5.4043426710  TIP3      3350            0.0000000000
     27399      3486  TIP3      H1             49.6257903752        4.0326043547        5.0790094123  TIP3      3350            0.0000000000
     27400      3486  TIP3      H2             50.9825510364        4.6273798534        5.4649561063  TIP3      3350            0.0000000000
     27401      3487  TIP3      OH2            48.3753632145       11.4914070050       18.5099766440  TIP3      3351            0.0000000000
     27402      3487  TIP3      H1             47.7866935134       10.7232920310       18.5282112110  TIP3      3351            0.0000000000
     27403      3487  TIP3      H2             48.0128939543       12.0068905662       19.2562008006  TIP3      3351            0.0000000000
     27404      3488  TIP3      OH2            51.7462400690        5.9030301493        6.2883175581  TIP3      3352            0.0000000000
     27405      3488  TIP3      H1             52.3505677817        5.8622390383        7.0573250037  TIP3      3352            0.0000000000
     27406      3488  TIP3      H2             51.8382467368        6.8171983717        5.9850964371  TIP3      3352            0.0000000000
     27407      3489  TIP3      OH2            41.8824133097       10.7894759863       12.3193451239  TIP3      3353            0.0000000000
     27408      3489  TIP3      H1             42.2610303835       10.4832043463       11.4674489929  TIP3      3353            0.0000000000
     27409      3489  TIP3      H2             42.1679862228       10.0930397349       12.9312249489  TIP3      3353            0.0000000000
     27410      3490  TIP3      OH2            48.4975880952       12.4469254801        5.9988401812  TIP3      3354            0.0000000000
     27411      3490  TIP3      H1             48.0237804526       13.2945650372        6.1785246411  TIP3      3354            0.0000000000
     27412      3490  TIP3      H2             47.9090882269       11.7800677467        6.4264534826  TIP3      3354            0.0000000000
     27413      3491  TIP3      OH2            39.1142398623        8.3874871807       18.2137275653  TIP3      3355            0.0000000000
     27414      3491  TIP3      H1             38.5332791580        7.9319763091       18.8489320267  TIP3      3355            0.0000000000
     27415      3491  TIP3      H2             38.5483095890        8.4190510765       17.4210901200  TIP3      3355            0.0000000000
     27416      3492  TIP3      OH2            44.8648152095        8.8302886993       19.8552468713  TIP3      3356            0.0000000000
     27417      3492  TIP3      H1             44.6274067166        8.8767888392       18.9154151723  TIP3      3356            0.0000000000
     27418      3492  TIP3      H2             45.6100947611        8.2093163865       19.8368197804  TIP3      3356            0.0000000000
     27419      3493  TIP3      OH2            50.9316677366       13.6668172310       18.1883532331  TIP3      3357            0.0000000000
     27420      3493  TIP3      H1             50.3848571520       14.2295085022       18.7763664343  TIP3      3357            0.0000000000
     27421      3493  TIP3      H2             51.8259926157       13.9339391084       18.4619493803  TIP3      3357            0.0000000000
     27422      3494  TIP3      OH2            55.7108899821        6.3977210302        7.1105443113  TIP3      3358            0.0000000000
     27423      3494  TIP3      H1             55.5503448372        6.0895761509        6.1929764303  TIP3      3358            0.0000000000
     27424      3494  TIP3      H2             56.1253825733        7.2588556921        6.9262072409  TIP3      3358            0.0000000000
     27425      3495  TIP3      OH2            56.5298043999       11.8033164990       19.6303235016  TIP3      3359            0.0000000000
     27426      3495  TIP3      H1             55.6430309163       11.9568622249       19.2501015853  TIP3      3359            0.0000000000
     27427      3495  TIP3      H2             57.0488355103       11.6637485720       18.8094355631  TIP3      3359            0.0000000000
     27428      3496  TIP3      OH2            54.5006616166       14.6766886488        6.9045303806  TIP3      3360            0.0000000000
     27429      3496  TIP3      H1             53.8758555189       13.9475070241        6.9328964442  TIP3      3360            0.0000000000
     27430      3496  TIP3      H2             54.9036367705       14.6011751671        6.0119886880  TIP3      3360            0.0000000000
     27431      3497  TIP3      OH2            51.6362619246        9.7484692854       13.7321951448  TIP3      3361            0.0000000000
     27432      3497  TIP3      H1             50.8055328237        9.3735714458       13.3805092254  TIP3      3361            0.0000000000
     27433      3497  TIP3      H2             52.2582419376        9.0890990025       13.3662712006  TIP3      3361            0.0000000000
     27434      3498  TIP3      OH2            43.9380548000       13.8274888134       10.1188774943  TIP3      3362            0.0000000000
     27435      3498  TIP3      H1             44.1223014499       14.7474061706        9.8080455807  TIP3      3362            0.0000000000
     27436      3498  TIP3      H2             43.0120373730       13.7238002430        9.8493418714  TIP3      3362            0.0000000000
     27437      3499  TIP3      OH2            40.0401671406        9.2605533290        4.2287868991  TIP3      3363            0.0000000000
     27438      3499  TIP3      H1             40.5623580227        9.4921601649        5.0295696439  TIP3      3363            0.0000000000
     27439      3499  TIP3      H2             39.1291917731        9.2080163549        4.6124157617  TIP3      3363            0.0000000000
     27440      3500  TIP3      OH2            45.5435014716       11.7446142871        9.5057131018  TIP3      3364            0.0000000000
     27441      3500  TIP3      H1             45.0863169660       12.6058105526        9.6242743195  TIP3      3364            0.0000000000
     27442      3500  TIP3      H2             44.9427772450       11.1087857792        9.9211815157  TIP3      3364            0.0000000000
     27443      3501  TIP3      OH2            46.4735932298       15.9029104460       16.3414462145  TIP3      3365            0.0000000000
     27444      3501  TIP3      H1             47.0852957219       16.6350790337       16.1116820404  TIP3      3365            0.0000000000
     27445      3501  TIP3      H2             46.8492052614       15.5620208645       17.1812243308  TIP3      3365            0.0000000000
     27446      3502  TIP3      OH2            44.3884468878       16.3472873620        9.1345571037  TIP3      3366            0.0000000000
     27447      3502  TIP3      H1             43.4580573174       16.6338944084        9.2474756010  TIP3      3366            0.0000000000
     27448      3502  TIP3      H2             44.8608034779       17.1021186150        9.5641376944  TIP3      3366            0.0000000000
     27449      3503  TIP3      OH2            49.9016172267       11.1621647854       15.5607319250  TIP3      3367            0.0000000000
     27450      3503  TIP3      H1             49.8084741403       10.5545124821       16.3071482852  TIP3      3367            0.0000000000
     27451      3503  TIP3      H2             50.6387746783       10.7361725690       15.0776409438  TIP3      3367            0.0000000000
     27452      3504  TIP3      OH2            51.8870717282       13.2057755456        5.1042030795  TIP3      3368            0.0000000000
     27453      3504  TIP3      H1             51.9150204321       12.6084120928        5.8841953663  TIP3      3368            0.0000000000
     27454      3504  TIP3      H2             51.0182052496       13.0079487594        4.7373705290  TIP3      3368            0.0000000000
     27455      3505  TIP3      OH2            52.6019928806       16.0190958858       17.8573064238  TIP3      3369            0.0000000000
     27456      3505  TIP3      H1             51.6400287315       15.9058448158       17.7161297280  TIP3      3369            0.0000000000
     27457      3505  TIP3      H2             52.7521798976       16.8354995011       17.3198307767  TIP3      3369            0.0000000000
     27458      3506  TIP3      OH2            56.3899273499       17.2015403266        5.1272016644  TIP3      3370            0.0000000000
     27459      3506  TIP3      H1             56.8688084822       17.7640232785        4.5001356203  TIP3      3370            0.0000000000
     27460      3506  TIP3      H2             55.7966118810       17.8344000846        5.5947589775  TIP3      3370            0.0000000000
     27461      3507  TIP3      OH2            40.7295393351        3.7588473806       17.6874621731  TIP3      3371            0.0000000000
     27462      3507  TIP3      H1             40.0847888822        4.1756327893       18.2845503131  TIP3      3371            0.0000000000
     27463      3507  TIP3      H2             40.6288436636        2.8182512889       17.9455464838  TIP3      3371            0.0000000000
     27464      3508  TIP3      OH2            52.7356913763       11.5518667774        7.0957473804  TIP3      3372            0.0000000000
     27465      3508  TIP3      H1             52.6490407145       10.7148889345        7.6044452571  TIP3      3372            0.0000000000
     27466      3508  TIP3      H2             53.7126583761       11.6629724776        7.1059927206  TIP3      3372            0.0000000000
     27467      3509  TIP3      OH2            40.1731047319       15.1294984026       15.7501251117  TIP3      3373            0.0000000000
     27468      3509  TIP3      H1             40.7837803707       14.4164092310       16.0033442454  TIP3      3373            0.0000000000
     27469      3509  TIP3      H2             39.8506912859       15.4324846731       16.6124273652  TIP3      3373            0.0000000000
     27470      3510  TIP3      OH2            44.7226290241       13.3772107074        5.6918206727  TIP3      3374            0.0000000000
     27471      3510  TIP3      H1             45.4164395413       12.8590401833        6.1358767422  TIP3      3374            0.0000000000
     27472      3510  TIP3      H2             44.8656148341       14.2841516398        6.0515509215  TIP3      3374            0.0000000000
     27473      3511  TIP3      OH2            41.3146476326       10.6058228235        6.2289663186  TIP3      3375            0.0000000000
     27474      3511  TIP3      H1             40.5767126029       11.0880412691        6.6788362683  TIP3      3375            0.0000000000
     27475      3511  TIP3      H2             41.6611009591       11.3240166614        5.6537473912  TIP3      3375            0.0000000000
     27476      3512  TIP3      OH2            49.3363624269        3.5804454589       16.8293633263  TIP3      3376            0.0000000000
     27477      3512  TIP3      H1             50.0034306204        3.6977910987       17.5375168223  TIP3      3376            0.0000000000
     27478      3512  TIP3      H2             49.0803423686        2.6313398208       16.9420629314  TIP3      3376            0.0000000000
     27479      3513  TIP3      OH2            49.5466865648        2.7751707998        7.7842638416  TIP3      3377            0.0000000000
     27480      3513  TIP3      H1             49.9985504847        3.2892564114        7.0819492626  TIP3      3377            0.0000000000
     27481      3513  TIP3      H2             50.1076936249        2.9395663887        8.5745424064  TIP3      3377            0.0000000000
     27482      3514  TIP3      OH2            47.5868118203       15.0195582164        5.8778860905  TIP3      3378            0.0000000000
     27483      3514  TIP3      H1             46.8093907182       15.4903968011        6.2264262867  TIP3      3378            0.0000000000
     27484      3514  TIP3      H2             47.5963749138       15.3426631327        4.9531860821  TIP3      3378            0.0000000000
     27485      3515  TIP3      OH2            47.4738370574        5.1160986205        8.6332171564  TIP3      3379            0.0000000000
     27486      3515  TIP3      H1             48.2259066313        5.7394268032        8.6720081902  TIP3      3379            0.0000000000
     27487      3515  TIP3      H2             47.4236948794        4.7831783897        9.5516004092  TIP3      3379            0.0000000000
     27488      3516  TIP3      OH2            48.2353033315        6.0675210172       17.4290206143  TIP3      3380            0.0000000000
     27489      3516  TIP3      H1             48.2706399501        6.2629400804       18.3776885046  TIP3      3380            0.0000000000
     27490      3516  TIP3      H2             48.5584582053        5.1382485393       17.3510455419  TIP3      3380            0.0000000000
     27491      3517  TIP3      OH2            47.5869577649        1.5778484950        9.1597149944  TIP3      3381            0.0000000000
     27492      3517  TIP3      H1             47.4928328469        2.3255290590        9.7849709616  TIP3      3381            0.0000000000
     27493      3517  TIP3      H2             48.3403216695        1.9094791838        8.6209333198  TIP3      3381            0.0000000000
     27494      3518  TIP3      OH2            45.0693904864       15.9016196177        6.6190021771  TIP3      3382            0.0000000000
     27495      3518  TIP3      H1             44.9740707827       16.7725172436        6.1808180976  TIP3      3382            0.0000000000
     27496      3518  TIP3      H2             44.7440480417       16.1167065361        7.5308742473  TIP3      3382            0.0000000000
     27497      3519  TIP3      OH2            43.4192422840        2.6593502783        6.2910239438  TIP3      3383            0.0000000000
     27498      3519  TIP3      H1             43.5780895067        3.5159108848        6.7309271033  TIP3      3383            0.0000000000
     27499      3519  TIP3      H2             44.1354508746        2.1006817414        6.6610256169  TIP3      3383            0.0000000000
     27500      3520  TIP3      OH2            53.7210621905        3.7756375629       18.3677068538  TIP3      3384            0.0000000000
     27501      3520  TIP3      H1             52.8031370711        3.7676165245       18.6926487831  TIP3      3384            0.0000000000
     27502      3520  TIP3      H2             53.5746547070        3.6305643359       17.4091720886  TIP3      3384            0.0000000000
     27503      3521  TIP3      OH2            52.6373808461        7.5990487115       12.3162524626  TIP3      3385            0.0000000000
     27504      3521  TIP3      H1             51.9117325357        6.9671282428       12.4416323290  TIP3      3385            0.0000000000
     27505      3521  TIP3      H2             53.3831631867        7.1122698679       12.7500921371  TIP3      3385            0.0000000000
     27506      3522  TIP3      OH2            42.0747271477       12.9142701845        4.7970073326  TIP3      3386            0.0000000000
     27507      3522  TIP3      H1             42.8552422084       13.2849021134        5.2564747962  TIP3      3386            0.0000000000
     27508      3522  TIP3      H2             42.4922421075       12.5469349595        3.9987842327  TIP3      3386            0.0000000000
     27509      3523  TIP3      OH2            39.9909764008        6.3499471793        4.4492204570  TIP3      3387            0.0000000000
     27510      3523  TIP3      H1             40.3458812608        7.2588564661        4.4377982304  TIP3      3387            0.0000000000
     27511      3523  TIP3      H2             39.1245643328        6.4801372253        4.0182123501  TIP3      3387            0.0000000000
     27512      3524  TIP3      OH2            53.5837082917       16.6580891829       14.0758293288  TIP3      3388            0.0000000000
     27513      3524  TIP3      H1             53.3286898120       17.3170336498       13.4075137422  TIP3      3388            0.0000000000
     27514      3524  TIP3      H2             54.5396235651       16.6661608370       13.8990002363  TIP3      3388            0.0000000000
     27515      3525  TIP3      OH2            41.3568763814        0.8899122622       12.5559970036  TIP3      3389            0.0000000000
     27516      3525  TIP3      H1             41.0305402547        0.8070034668       11.6359582011  TIP3      3389            0.0000000000
     27517      3525  TIP3      H2             41.0674403414        0.0606722704       13.0000156523  TIP3      3389            0.0000000000
     27518      3526  TIP3      OH2            39.3606107936       14.2670823681        8.2258632274  TIP3      3390            0.0000000000
     27519      3526  TIP3      H1             38.8813238453       14.8730180947        8.8049304555  TIP3      3390            0.0000000000
     27520      3526  TIP3      H2             39.8040438308       14.9132944160        7.6367199994  TIP3      3390            0.0000000000
     27521      3527  TIP3      OH2            39.2242663572       17.5861604213       20.3986571548  TIP3      3391            0.0000000000
     27522      3527  TIP3      H1             39.8997538372       17.4503792922       21.1035538664  TIP3      3391            0.0000000000
     27523      3527  TIP3      H2             38.5905205777       16.8848803276       20.6214919418  TIP3      3391            0.0000000000
     27524      3528  TIP3      OH2            44.0539528483       16.5964746966       21.7885089244  TIP3      3392            0.0000000000
     27525      3528  TIP3      H1             44.5115247925       16.2708925914       22.6044569442  TIP3      3392            0.0000000000
     27526      3528  TIP3      H2             44.2467671312       15.8850271771       21.1566882076  TIP3      3392            0.0000000000
     27527      3529  TIP3      OH2            50.1926264628       15.0496828346       20.4416225095  TIP3      3393            0.0000000000
     27528      3529  TIP3      H1             49.8546773639       14.2153568869       20.8473719355  TIP3      3393            0.0000000000
     27529      3529  TIP3      H2             51.0787407234       15.1096794425       20.8859906352  TIP3      3393            0.0000000000
     27530      3530  TIP3      OH2            53.0508672449       15.3886592823        3.4284242721  TIP3      3394            0.0000000000
     27531      3530  TIP3      H1             52.8130577641       14.7812966358        4.1611836772  TIP3      3394            0.0000000000
     27532      3530  TIP3      H2             53.8643130109       14.9633945412        3.1015830133  TIP3      3394            0.0000000000
     27533      3531  TIP3      OH2            38.7111053364       10.5944904699       21.6066358788  TIP3      3395            0.0000000000
     27534      3531  TIP3      H1             38.9787328550        9.7288109042       21.2432802804  TIP3      3395            0.0000000000
     27535      3531  TIP3      H2             38.3327580203       11.0279653255       20.8152601460  TIP3      3395            0.0000000000
     27536      3532  TIP3      OH2            43.4551732640       11.2267951364        3.0544714344  TIP3      3396            0.0000000000
     27537      3532  TIP3      H1             43.9108187306       11.3518101012        3.8983641367  TIP3      3396            0.0000000000
     27538      3532  TIP3      H2             44.0301628915       10.5263209699        2.6659656823  TIP3      3396            0.0000000000
     27539      3533  TIP3      OH2            46.2249962553       11.1443171835       20.1932404261  TIP3      3397            0.0000000000
     27540      3533  TIP3      H1             45.7288956647       11.8128090121       19.6719341502  TIP3      3397            0.0000000000
     27541      3533  TIP3      H2             45.6747158281       10.3277391267       20.0978596752  TIP3      3397            0.0000000000
     27542      3534  TIP3      OH2            51.8304294819       10.8033869853       18.0803315330  TIP3      3398            0.0000000000
     27543      3534  TIP3      H1             52.6450179087       11.3313364876       18.1984214342  TIP3      3398            0.0000000000
     27544      3534  TIP3      H2             51.1575437761       11.5094050497       18.1660124683  TIP3      3398            0.0000000000
     27545      3535  TIP3      OH2            40.5540397602        8.4503925359       21.4230028792  TIP3      3399            0.0000000000
     27546      3535  TIP3      H1             40.9295587646        7.5601299291       21.5015846947  TIP3      3399            0.0000000000
     27547      3535  TIP3      H2             40.6926384367        8.7970352175       22.3298572780  TIP3      3399            0.0000000000
     27548      3536  TIP3      OH2            44.9080386637        9.4465077739        5.9276589345  TIP3      3400            0.0000000000
     27549      3536  TIP3      H1             44.1248855922        8.9965326760        6.3122528214  TIP3      3400            0.0000000000
     27550      3536  TIP3      H2             45.1872914911        8.8070398499        5.2401733328  TIP3      3400            0.0000000000
     27551      3537  TIP3      OH2            43.6025024222        7.3519938010       17.4800430148  TIP3      3401            0.0000000000
     27552      3537  TIP3      H1             42.9723352169        7.9398496610       17.9430180986  TIP3      3401            0.0000000000
     27553      3537  TIP3      H2             44.1463795037        8.0043140603       17.0135641104  TIP3      3401            0.0000000000
     27554      3538  TIP3      OH2            45.8328234061        7.6982666974        4.1039288287  TIP3      3402            0.0000000000
     27555      3538  TIP3      H1             45.9337389586        7.9354316185        3.1636043971  TIP3      3402            0.0000000000
     27556      3538  TIP3      H2             46.7692058555        7.8375926540        4.3982742363  TIP3      3402            0.0000000000
     27557      3539  TIP3      OH2            49.2327878725       10.2231916161       21.4476626236  TIP3      3403            0.0000000000
     27558      3539  TIP3      H1             49.9863450134        9.7117311172       21.1118122662  TIP3      3403            0.0000000000
     27559      3539  TIP3      H2             48.4562722698        9.8124516442       21.0236649824  TIP3      3403            0.0000000000
     27560      3540  TIP3      OH2            55.2658309212       10.2705675686        2.9444356628  TIP3      3404            0.0000000000
     27561      3540  TIP3      H1             54.7362379574       10.4138147435        2.1475505818  TIP3      3404            0.0000000000
     27562      3540  TIP3      H2             55.7446586462       11.1178961424        3.0283098819  TIP3      3404            0.0000000000
     27563      3541  TIP3      OH2            44.7681541142        5.1839333979       18.6921423963  TIP3      3405            0.0000000000
     27564      3541  TIP3      H1             44.7488211755        4.5259982479       17.9548707403  TIP3      3405            0.0000000000
     27565      3541  TIP3      H2             44.4883569600        6.0126121860       18.2371123304  TIP3      3405            0.0000000000
     27566      3542  TIP3      OH2            44.9428142676        3.4475775386       16.6605271967  TIP3      3406            0.0000000000
     27567      3542  TIP3      H1             45.6444147096        3.7759675585       16.0602432985  TIP3      3406            0.0000000000
     27568      3542  TIP3      H2             44.1761889064        3.4326633193       16.0544357415  TIP3      3406            0.0000000000
     27569      3543  TIP3      OH2            46.0964451066        9.3164518740       17.1284471874  TIP3      3407            0.0000000000
     27570      3543  TIP3      H1             46.7497095796        8.8403672074       16.5974636973  TIP3      3407            0.0000000000
     27571      3543  TIP3      H2             45.5345467330        9.7683114327       16.4574931533  TIP3      3407            0.0000000000
     27572      3544  TIP3      OH2            49.9778366092        6.7689880962       21.8504685838  TIP3      3408            0.0000000000
     27573      3544  TIP3      H1             49.9212223181        5.8050706775       21.7383762469  TIP3      3408            0.0000000000
     27574      3544  TIP3      H2             50.9354203220        6.9238618316       21.9411384782  TIP3      3408            0.0000000000
     27575      3545  TIP3      OH2            52.0451370577        9.4041550534       20.4382589871  TIP3      3409            0.0000000000
     27576      3545  TIP3      H1             51.9562315799        9.8025421463       19.5409570426  TIP3      3409            0.0000000000
     27577      3545  TIP3      H2             52.9301341685        9.0160402722       20.3624572817  TIP3      3409            0.0000000000
     27578      3546  TIP3      OH2            43.1478199814        5.5898066562       20.7920864118  TIP3      3410            0.0000000000
     27579      3546  TIP3      H1             42.2782769512        5.1478253714       20.7518707312  TIP3      3410            0.0000000000
     27580      3546  TIP3      H2             43.5863010689        5.3024269867       19.9581528390  TIP3      3410            0.0000000000
     27581      3547  TIP3      OH2            45.4190110090        0.7985762505       16.8718987695  TIP3      3411            0.0000000000
     27582      3547  TIP3      H1             45.4093890478        1.7861611958       16.8921881435  TIP3      3411            0.0000000000
     27583      3547  TIP3      H2             44.6288396835        0.6123406542       16.3474732056  TIP3      3411            0.0000000000
     27584      3548  TIP3      OH2            46.4450094179        4.9705051924       20.9387623655  TIP3      3412            0.0000000000
     27585      3548  TIP3      H1             46.1049039724        4.1864069392       21.4161991110  TIP3      3412            0.0000000000
     27586      3548  TIP3      H2             45.8389398323        4.9515720881       20.1637550336  TIP3      3412            0.0000000000
     27587      3549  TIP3      OH2            48.9904777352        4.2586148141       20.5438127248  TIP3      3413            0.0000000000
     27588      3549  TIP3      H1             48.0092669393        4.3334257064       20.5818868452  TIP3      3413            0.0000000000
     27589      3549  TIP3      H2             49.1228212674        3.4649736210       21.0690342530  TIP3      3413            0.0000000000
     27590      3550  TIP3      OH2            51.3551190420        1.8781209808       22.4669284449  TIP3      3414            0.0000000000
     27591      3550  TIP3      H1             50.6884412225        1.2940835170       22.0361378294  TIP3      3414            0.0000000000
     27592      3550  TIP3      H2             50.8526423576        2.6875895380       22.6255636282  TIP3      3414            0.0000000000
     27593      3551  TIP3      OH2            41.1077075325        3.8514413508       21.2571946118  TIP3      3415            0.0000000000
     27594      3551  TIP3      H1             41.4098321759        2.9425430652       21.3573108129  TIP3      3415            0.0000000000
     27595      3551  TIP3      H2             41.1246844159        4.1415413303       22.2142597313  TIP3      3415            0.0000000000
     27596      3552  TIP3      OH2            46.4456111698        0.7912506091       19.2698947877  TIP3      3416            0.0000000000
     27597      3552  TIP3      H1             46.3298171787       -0.0979584672       19.6651813758  TIP3      3416            0.0000000000
     27598      3552  TIP3      H2             45.9235762695        0.7004622528       18.4500174497  TIP3      3416            0.0000000000
     27599      3553  TIP3      OH2            46.1831854320        2.1403209914       21.4547754220  TIP3      3417            0.0000000000
     27600      3553  TIP3      H1             46.2270643954        1.4651697564       20.7350721602  TIP3      3417            0.0000000000
     27601      3553  TIP3      H2             45.2310617222        2.2631355873       21.6012183611  TIP3      3417            0.0000000000
     27602      3554  TIP3      OH2            45.1951723480       18.0779273022        4.6949420042  TIP3      3418            0.0000000000
     27603      3554  TIP3      H1             46.0282394824       18.3601978841        5.1193011239  TIP3      3418            0.0000000000
     27604      3554  TIP3      H2             45.3737613918       18.3732989330        3.7784707232  TIP3      3418            0.0000000000
     27605      3555  TIP3      OH2            38.9822935259       12.5066015954        4.4680338390  TIP3      3419            0.0000000000
     27606      3555  TIP3      H1             39.8289257524       12.6888544056        4.0264264289  TIP3      3419            0.0000000000
     27607      3555  TIP3      H2             38.4016586854       12.3193120686        3.7168071551  TIP3      3419            0.0000000000
     27608      3556  TIP3      OH2            38.3530817414       17.9669592954        9.5479285978  TIP3      3420            0.0000000000
     27609      3556  TIP3      H1             37.5189674518       17.6093622710        9.1611372656  TIP3      3420            0.0000000000
     27610      3556  TIP3      H2             38.5231949565       17.2910335476       10.2386487762  TIP3      3420            0.0000000000
     27611      3557  TIP3      OH2            38.8956967945       16.1102303585       11.4680514861  TIP3      3421            0.0000000000
     27612      3557  TIP3      H1             38.6900509379       15.2723273508       11.9352126671  TIP3      3421            0.0000000000
     27613      3557  TIP3      H2             39.4104710123       16.5598637912       12.1829101814  TIP3      3421            0.0000000000
     27614      3558  TIP3      OH2            56.5373879804       17.7213069209       14.0542765254  TIP3      3422            0.0000000000
     27615      3558  TIP3      H1             56.6357591538       17.3700404995       14.9456747696  TIP3      3422            0.0000000000
     27616      3558  TIP3      H2             57.0110187448       18.5610726635       14.1117165095  TIP3      3422            0.0000000000
     27617      3559  TIP3      OH2            55.9108744775       16.8500302102       17.0752797587  TIP3      3423            0.0000000000
     27618      3559  TIP3      H1             55.6302861498       16.0173825781       16.6357057018  TIP3      3423            0.0000000000
     27619      3559  TIP3      H2             56.4469314071       16.4957560114       17.8027440795  TIP3      3423            0.0000000000
     27620      3560  TIP3      OH2            54.4961635977       12.3376189946       22.1999844336  TIP3      3424            0.0000000000
     27621      3560  TIP3      H1             53.5311843494       12.3511894654       22.1188359518  TIP3      3424            0.0000000000
     27622      3560  TIP3      H2             54.6623170381       13.2477053080       22.5224918542  TIP3      3424            0.0000000000
     27623      3561  TIP3      OH2            55.4673597540       11.1945491161        7.0680789324  TIP3      3425            0.0000000000
     27624      3561  TIP3      H1             56.1810230419       11.7204779209        7.4863804211  TIP3      3425            0.0000000000
     27625      3561  TIP3      H2             55.4453636386       10.4253937204        7.6763624252  TIP3      3425            0.0000000000
     27626      3562  TIP3      OH2            56.0945554753        9.0416178528        8.9515291202  TIP3      3426            0.0000000000
     27627      3562  TIP3      H1             55.3945878120        8.4861992659        9.3846460657  TIP3      3426            0.0000000000
     27628      3562  TIP3      H2             56.5149929109        9.4076193345        9.7339256475  TIP3      3426            0.0000000000
     27629      3563  TIP3      OH2            55.7264773571       11.9147081573       13.6680787884  TIP3      3427            0.0000000000
     27630      3563  TIP3      H1             56.4076627806       11.2186812080       13.5690832188  TIP3      3427            0.0000000000
     27631      3563  TIP3      H2             56.1647641564       12.7058956999       13.3156566288  TIP3      3427            0.0000000000
     27632      3564  TIP3      OH2            54.4974729014       14.5729827181       16.2111818550  TIP3      3428            0.0000000000
     27633      3564  TIP3      H1             53.7562329184       15.1587587048       16.4478660880  TIP3      3428            0.0000000000
     27634      3564  TIP3      H2             54.1794747881       14.1531453874       15.3964062002  TIP3      3428            0.0000000000
     27635      3565  TIP3      OH2            56.6444386835        9.2742764504        5.4336793522  TIP3      3429            0.0000000000
     27636      3565  TIP3      H1             55.9132785524        9.4911032133        4.8342992541  TIP3      3429            0.0000000000
     27637      3565  TIP3      H2             56.5552773435       10.0321176955        6.0432546732  TIP3      3429            0.0000000000
     27638      3566  TIP3      OH2            55.2050970089        5.9026141794        4.2241444462  TIP3      3430            0.0000000000
     27639      3566  TIP3      H1             54.9556810545        6.3180500730        3.3796812732  TIP3      3430            0.0000000000
     27640      3566  TIP3      H2             54.7665197166        5.0484279720        4.1469192939  TIP3      3430            0.0000000000
     27641      3567  TIP3      OH2            54.2136881618        7.6148467058       10.1800871163  TIP3      3431            0.0000000000
     27642      3567  TIP3      H1             53.8254670025        6.8111140193        9.7810205083  TIP3      3431            0.0000000000
     27643      3567  TIP3      H2             53.6813392250        7.7203664798       10.9975685630  TIP3      3431            0.0000000000
     27644      3568  TIP3      OH2            38.7435750197        9.9393346193       13.8949942192  TIP3      3432            0.0000000000
     27645      3568  TIP3      H1             38.7076827048        9.4526832562       13.0458164394  TIP3      3432            0.0000000000
     27646      3568  TIP3      H2             39.6633592436        9.7136390216       14.1832617811  TIP3      3432            0.0000000000
     27647      3569  TIP3      OH2            54.9394054293        9.4950581269       19.7095896160  TIP3      3433            0.0000000000
     27648      3569  TIP3      H1             55.3952475630        8.6200238354       19.7608271415  TIP3      3433            0.0000000000
     27649      3569  TIP3      H2             55.6956570259       10.1153920324       19.6476142968  TIP3      3433            0.0000000000
     27650      3570  TIP3      OH2            56.2967571756        7.2048694664       19.6682001667  TIP3      3434            0.0000000000
     27651      3570  TIP3      H1             55.4256864188        6.7712660108       19.7780802446  TIP3      3434            0.0000000000
     27652      3570  TIP3      H2             56.9389532301        6.4988463412       19.8868185602  TIP3      3434            0.0000000000
     27653      3571  TIP3      OH2            53.4369091331        5.7401093872        8.4116842099  TIP3      3435            0.0000000000
     27654      3571  TIP3      H1             53.6550863759        4.7779303797        8.4887273900  TIP3      3435            0.0000000000
     27655      3571  TIP3      H2             54.2530166798        6.0585110821        7.9647784367  TIP3      3435            0.0000000000
     27656      3572  TIP3      OH2            54.4033148321        6.0343572085       13.6433670795  TIP3      3436            0.0000000000
     27657      3572  TIP3      H1             55.3716859953        6.1469404363       13.7839045955  TIP3      3436            0.0000000000
     27658      3572  TIP3      H2             54.1232528430        5.8874610870       14.5728659565  TIP3      3436            0.0000000000
     27659      3573  TIP3      OH2            54.0824295860        6.6082799388       16.1939731760  TIP3      3437            0.0000000000
     27660      3573  TIP3      H1             53.1960495984        6.9609307554       16.3834676197  TIP3      3437            0.0000000000
     27661      3573  TIP3      H2             54.6565338166        7.4101149221       16.2125328017  TIP3      3437            0.0000000000
     27662      3574  TIP3      OH2            38.7888076431        4.7179247690       20.3999512913  TIP3      3438            0.0000000000
     27663      3574  TIP3      H1             39.6988717943        4.5706939125       20.7433967181  TIP3      3438            0.0000000000
     27664      3574  TIP3      H2             38.3428528698        3.8965790097       20.6901457755  TIP3      3438            0.0000000000
     27665      3575  TIP3      OH2            57.3658977089        0.5625371190       21.8880373124  TIP3      3439            0.0000000000
     27666      3575  TIP3      H1             57.5190122372       -0.3742676613       21.6279533436  TIP3      3439            0.0000000000
     27667      3575  TIP3      H2             57.2868990719        0.9869011040       21.0161460294  TIP3      3439            0.0000000000
     27668      3576  TIP3      OH2            54.2437324738        3.2497894052        8.5972493078  TIP3      3440            0.0000000000
     27669      3576  TIP3      H1             54.3713431291        2.5748155982        9.3031697779  TIP3      3440            0.0000000000
     27670      3576  TIP3      H2             53.5688166521        2.7856409231        8.0515572948  TIP3      3440            0.0000000000
     27671      3577  TIP3      OH2            39.7012598730        3.0792338042       13.2194579963  TIP3      3441            0.0000000000
     27672      3577  TIP3      H1             40.1021619019        2.1887649769       13.2387718185  TIP3      3441            0.0000000000
     27673      3577  TIP3      H2             40.4612171820        3.6930961241       13.2670738274  TIP3      3441            0.0000000000
     27674      3578  TIP3      OH2            38.2464533197        6.2945229975       14.2575887346  TIP3      3442            0.0000000000
     27675      3578  TIP3      H1             38.6702529748        6.0462242625       13.4092528235  TIP3      3442            0.0000000000
     27676      3578  TIP3      H2             38.9127471546        6.8912573810       14.6224851723  TIP3      3442            0.0000000000
     27677      3579  TIP3      OH2            56.5121429870        2.9081218268       20.2435657315  TIP3      3443            0.0000000000
     27678      3579  TIP3      H1             56.0538892782        2.7240762180       21.0787033810  TIP3      3443            0.0000000000
     27679      3579  TIP3      H2             55.7883955819        2.6463423392       19.6521854645  TIP3      3443            0.0000000000
     27680      3580  TIP3      OH2            56.2719707362        2.2174122581        4.8949990682  TIP3      3444            0.0000000000
     27681      3580  TIP3      H1             56.9130067640        1.5437473689        4.6251471409  TIP3      3444            0.0000000000
     27682      3580  TIP3      H2             56.7964818828        3.0107862336        4.7990254844  TIP3      3444            0.0000000000
     27683      3581  TIP3      OH2            37.9025385997        2.5976689682        8.0870432768  TIP3      3445            0.0000000000
     27684      3581  TIP3      H1             36.9707336377        2.8878212766        8.1185076429  TIP3      3445            0.0000000000
     27685      3581  TIP3      H2             38.3294672939        3.3337846847        7.6221103087  TIP3      3445            0.0000000000
     27686      3582  TIP3      OH2            53.3653216832       17.4939389603       10.3002138168  TIP3      3446            0.0000000000
     27687      3582  TIP3      H1             54.0282909783       17.0761533809        9.7007570963  TIP3      3446            0.0000000000
     27688      3582  TIP3      H2             53.9044614195       18.0332864011       10.9107425787  TIP3      3446            0.0000000000
     27689      3583  TIP3      OH2            38.1183085936        0.9495596412       15.9493644170  TIP3      3447            0.0000000000
     27690      3583  TIP3      H1             38.4766391129        0.9853051368       16.8604638710  TIP3      3447            0.0000000000
     27691      3583  TIP3      H2             37.6427187383        1.7898231252       15.8405940714  TIP3      3447            0.0000000000
     27692      3584  TIP3      OH2            40.3646734961       14.4096293096       20.7539984235  TIP3      3448            0.0000000000
     27693      3584  TIP3      H1             39.6247395458       14.3674273499       20.1024912132  TIP3      3448            0.0000000000
     27694      3584  TIP3      H2             40.4167958893       15.3635164739       20.9198068827  TIP3      3448            0.0000000000
     27695      3585  TIP3      OH2            44.1115797015       16.0226439134       17.4785144855  TIP3      3449            0.0000000000
     27696      3585  TIP3      H1             43.7720978490       16.8000181845       16.9728226476  TIP3      3449            0.0000000000
     27697      3585  TIP3      H2             44.9380662664       15.8241947444       16.9826915270  TIP3      3449            0.0000000000
     27698      3586  TIP3      OH2            47.5774548491       16.9423627568       19.4731372563  TIP3      3450            0.0000000000
     27699      3586  TIP3      H1             47.8679301329       16.6887455527       20.3721535328  TIP3      3450            0.0000000000
     27700      3586  TIP3      H2             48.4150360095       17.2701934210       19.0715918473  TIP3      3450            0.0000000000
     27701      3587  TIP3      OH2            49.8354754159       18.1443589296       18.7123165096  TIP3      3451            0.0000000000
     27702      3587  TIP3      H1             50.6866507687       18.1001148917       18.2639000480  TIP3      3451            0.0000000000
     27703      3587  TIP3      H2             50.0801429169       18.5756554871       19.5596314608  TIP3      3451            0.0000000000
     27704      3588  TIP3      OH2            54.4533983707        0.4715803348       17.7722595620  TIP3      3452            0.0000000000
     27705      3588  TIP3      H1             54.4069280973        1.4143122880       17.5634885692  TIP3      3452            0.0000000000
     27706      3588  TIP3      H2             54.7691837371        0.1039432150       16.9280378372  TIP3      3452            0.0000000000
     27707      3589  TIP3      OH2            40.7916105851       18.5043417423       16.2906313321  TIP3      3453            0.0000000000
     27708      3589  TIP3      H1             40.3001838953       19.2530873536       15.8994712371  TIP3      3453            0.0000000000
     27709      3589  TIP3      H2             40.5399590500       18.5998172855       17.2158689232  TIP3      3453            0.0000000000
     27710      3590  TIP3      OH2            43.3796189508       18.2151808881       16.0403638554  TIP3      3454            0.0000000000
     27711      3590  TIP3      H1             42.3913577646       18.1768792224       16.0678959698  TIP3      3454            0.0000000000
     27712      3590  TIP3      H2             43.4890899009       18.6253088881       15.1533951528  TIP3      3454            0.0000000000
     27713      3591  TIP3      OH2            47.9468644180       17.8354409605       14.9666836179  TIP3      3455            0.0000000000
     27714      3591  TIP3      H1             47.1897969642       18.2506621510       14.4991239899  TIP3      3455            0.0000000000
     27715      3591  TIP3      H2             48.2568315379       18.5980464692       15.5099480858  TIP3      3455            0.0000000000
     27716      3592  TIP3      OH2            50.0964385108       16.2596576405       16.2667829272  TIP3      3456            0.0000000000
     27717      3592  TIP3      H1             49.3263863177       16.5838978402       15.7603745330  TIP3      3456            0.0000000000
     27718      3592  TIP3      H2             50.7436695686       16.9358095623       15.9907784409  TIP3      3456            0.0000000000
     27719      3593  TIP3      OH2            52.6750261977       18.2116001619       16.2174643395  TIP3      3457            0.0000000000
     27720      3593  TIP3      H1             52.7390992330       19.1573628478       15.9657570771  TIP3      3457            0.0000000000
     27721      3593  TIP3      H2             53.0064479739       17.8125966142       15.3842052759  TIP3      3457            0.0000000000
     27722      3594  TIP3      OH2            40.3664923245       16.8400745339       13.5518032306  TIP3      3458            0.0000000000
     27723      3594  TIP3      H1             40.1943760450       16.3196667343       14.3741419885  TIP3      3458            0.0000000000
     27724      3594  TIP3      H2             41.2749333489       16.5347802069       13.3155320279  TIP3      3458            0.0000000000
     27725      3595  TIP3      OH2            42.7150073058       16.1724753332       12.5445830498  TIP3      3459            0.0000000000
     27726      3595  TIP3      H1             42.5472973954       15.2051066902       12.6695007667  TIP3      3459            0.0000000000
     27727      3595  TIP3      H2             43.4616981876       16.3178641926       13.1687746052  TIP3      3459            0.0000000000
     27728      3596  TIP3      OH2            44.7943961645       15.9682156921       14.0951666255  TIP3      3460            0.0000000000
     27729      3596  TIP3      H1             45.1811877326       15.2025605999       13.6377968466  TIP3      3460            0.0000000000
     27730      3596  TIP3      H2             45.2500890403       15.9345467449       14.9590504435  TIP3      3460            0.0000000000
     27731      3597  TIP3      OH2            48.5495388461        2.2030341201       12.3856511037  TIP3      3461            0.0000000000
     27732      3597  TIP3      H1             47.7747688181        1.8251329155       12.8496643861  TIP3      3461            0.0000000000
     27733      3597  TIP3      H2             48.8238756767        1.4204242882       11.8871966569  TIP3      3461            0.0000000000
     27734      3598  TIP3      OH2            54.1439854104        0.0752171528       12.9555231473  TIP3      3462            0.0000000000
     27735      3598  TIP3      H1             54.5132718891        0.5349106246       12.1795776881  TIP3      3462            0.0000000000
     27736      3598  TIP3      H2             53.4160700507       -0.4409876041       12.5689694955  TIP3      3462            0.0000000000
     27737      3599  TIP3      OH2            55.1330368415        1.6223346298       10.6954047743  TIP3      3463            0.0000000000
     27738      3599  TIP3      H1             55.4970943982        1.0506249283        9.9822027323  TIP3      3463            0.0000000000
     27739      3599  TIP3      H2             55.7804063754        2.3659224744       10.6771994758  TIP3      3463            0.0000000000
     27740      3600  TIP3      OH2            40.7025929216        0.9356011617        9.8884185876  TIP3      3464            0.0000000000
     27741      3600  TIP3      H1             39.8566426922        0.8218810773        9.4077832684  TIP3      3464            0.0000000000
     27742      3600  TIP3      H2             41.2701484642        0.3226369027        9.3558613817  TIP3      3464            0.0000000000
     27743      3601  TIP3      OH2            39.3798179715        0.7184477548        6.5894515494  TIP3      3465            0.0000000000
     27744      3601  TIP3      H1             39.8078237059        1.0914842665        5.7978477876  TIP3      3465            0.0000000000
     27745      3601  TIP3      H2             38.8088121827        1.4384180979        6.9340983924  TIP3      3465            0.0000000000
     27746      3602  TIP3      OH2            44.8377897785        1.0260309417        9.2757187626  TIP3      3466            0.0000000000
     27747      3602  TIP3      H1             45.8031599039        1.1687613868        9.1935948859  TIP3      3466            0.0000000000
     27748      3602  TIP3      H2             44.8555627796        0.4265441647       10.0269586279  TIP3      3466            0.0000000000
     27749      3603  TIP3      OH2            51.1399591930        0.6407928385       10.7982780510  TIP3      3467            0.0000000000
     27750      3603  TIP3      H1             51.0848032735        1.4804364815       11.2759174541  TIP3      3467            0.0000000000
     27751      3603  TIP3      H2             50.6925840559        0.0228154618       11.4035207023  TIP3      3467            0.0000000000
     27752      3604  TIP3      OH2            52.3193118714        1.6992560636        7.5538968597  TIP3      3468            0.0000000000
     27753      3604  TIP3      H1             51.4302038214        1.7713764329        7.1792538315  TIP3      3468            0.0000000000
     27754      3604  TIP3      H2             52.1742705040        1.0508668947        8.2655531801  TIP3      3468            0.0000000000
     27755      3605  TIP3      OH2            39.6301412646       16.4482762067        6.5096752363  TIP3      3469            0.0000000000
     27756      3605  TIP3      H1             38.6677146481       16.4499031295        6.3200321525  TIP3      3469            0.0000000000
     27757      3605  TIP3      H2             39.7797829505       17.4083236862        6.3887106385  TIP3      3469            0.0000000000
     27758      3606  TIP3      OH2            41.1193795530        1.7009612690        4.4859067300  TIP3      3470            0.0000000000
     27759      3606  TIP3      H1             41.7086955232        2.0550782512        3.7992120668  TIP3      3470            0.0000000000
     27760      3606  TIP3      H2             41.6719339091        1.8474950896        5.2779211374  TIP3      3470            0.0000000000
     27761      3607  TIP3      OH2            46.5075514787        2.9791744693        6.7978747103  TIP3      3471            0.0000000000
     27762      3607  TIP3      H1             46.6714133240        2.2301986152        7.4007015579  TIP3      3471            0.0000000000
     27763      3607  TIP3      H2             46.8776075005        3.7177053793        7.3238277315  TIP3      3471            0.0000000000
     27764      3608  TIP3      OH2            48.1456333451       17.8885603294        4.8287945798  TIP3      3472            0.0000000000
     27765      3608  TIP3      H1             49.1133026090       17.7408975486        4.7686473842  TIP3      3472            0.0000000000
     27766      3608  TIP3      H2             47.8408908853       17.1906350807        4.2237261146  TIP3      3472            0.0000000000
     27767      3609  TIP3      OH2            54.9619066049       16.8075422132        8.3647813149  TIP3      3473            0.0000000000
     27768      3609  TIP3      H1             54.8445514295       16.0197278361        7.7688180310  TIP3      3473            0.0000000000
     27769      3609  TIP3      H2             54.7870408180       17.5326856880        7.7331079225  TIP3      3473            0.0000000000
     27770      3610  TIP3      OH2            40.7615946409        1.2306519878       18.9685270589  TIP3      3474            0.0000000000
     27771      3610  TIP3      H1             40.0621955234        0.5507484640       19.0587499696  TIP3      3474            0.0000000000
     27772      3610  TIP3      H2             41.4205242190        0.9001831465       19.6270432760  TIP3      3474            0.0000000000
     27773      3611  TIP3      OH2            42.6251000032       66.4171661473       20.6169181327  TIP3      3475            0.0000000000
     27774      3611  TIP3      H1             43.1854849775       66.8275199797       21.3007141087  TIP3      3475            0.0000000000
     27775      3611  TIP3      H2             42.4371198144       65.5479093640       21.0182823553  TIP3      3475            0.0000000000
     27776      3612  TIP3      OH2            41.6713028442       17.8267660562        3.9937022861  TIP3      3476            0.0000000000
     27777      3612  TIP3      H1             40.7053772027       17.9488679922        4.0584393313  TIP3      3476            0.0000000000
     27778      3612  TIP3      H2             41.8218476011       16.9899321572        4.4455758449  TIP3      3476            0.0000000000
     27779      3613  TIP3      OH2            49.8448522822       66.2089095194       21.5458599140  TIP3      3477            0.0000000000
     27780      3613  TIP3      H1             50.2450758574       65.5061176634       22.0815001379  TIP3      3477            0.0000000000
     27781      3613  TIP3      H2             50.0688932352       65.9207078647       20.6451446147  TIP3      3477            0.0000000000
     27782      3614  TIP3      OH2            54.5177839957       15.8193179097       19.9621911346  TIP3      3478            0.0000000000
     27783      3614  TIP3      H1             54.1260366895       15.6654503238       19.0796612347  TIP3      3478            0.0000000000
     27784      3614  TIP3      H2             54.3192717425       16.7726279921       20.0713554098  TIP3      3478            0.0000000000
     27785      3615  TIP3      OH2            59.7599817404        8.4795222246       15.0383355724  TIP3      3479            0.0000000000
     27786      3615  TIP3      H1             59.7054807282        7.7341770901       15.6753504081  TIP3      3479            0.0000000000
     27787      3615  TIP3      H2             60.3927963167        9.0548122423       15.5166737897  TIP3      3479            0.0000000000
     27788      3616  TIP3      OH2            60.8386038754       13.5400569805       12.6350580720  TIP3      3480            0.0000000000
     27789      3616  TIP3      H1             60.4853626582       12.6316098672       12.7103401564  TIP3      3480            0.0000000000
     27790      3616  TIP3      H2             61.7796777945       13.3500409029       12.8536734113  TIP3      3480            0.0000000000
     27791      3617  TIP3      OH2            57.3397005053        6.2640660801        9.2083774867  TIP3      3481            0.0000000000
     27792      3617  TIP3      H1             57.2793924384        7.2292215382        9.1563874033  TIP3      3481            0.0000000000
     27793      3617  TIP3      H2             56.5544939528        6.0355100304        8.6783461299  TIP3      3481            0.0000000000
     27794      3618  TIP3      OH2            58.5165946681        8.9908702377       11.7366921586  TIP3      3482            0.0000000000
     27795      3618  TIP3      H1             58.8444135276        8.0649148741       11.7584286298  TIP3      3482            0.0000000000
     27796      3618  TIP3      H2             58.6946600087        9.2859405891       10.8339969155  TIP3      3482            0.0000000000
     27797      3619  TIP3      OH2            -0.1930283442       11.7403450381       14.8573727058  TIP3      3483            0.0000000000
     27798      3619  TIP3      H1              0.2195346894       11.1633479591       14.1928961545  TIP3      3483            0.0000000000
     27799      3619  TIP3      H2             -0.0681926900       12.6362351699       14.4869588101  TIP3      3483            0.0000000000
     27800      3620  TIP3      OH2            62.1723545588        4.2315862931       11.4021594691  TIP3      3484            0.0000000000
     27801      3620  TIP3      H1             62.4334393331        4.8407076711       10.6760897242  TIP3      3484            0.0000000000
     27802      3620  TIP3      H2             61.7302749296        3.5391986884       10.8645242141  TIP3      3484            0.0000000000
     27803      3621  TIP3      OH2            59.1843359841        6.1944321295       12.0714271888  TIP3      3485            0.0000000000
     27804      3621  TIP3      H1             59.7731194230        5.5973433477       12.5816485263  TIP3      3485            0.0000000000
     27805      3621  TIP3      H2             59.4674261190        6.0261085413       11.1528719097  TIP3      3485            0.0000000000
     27806      3622  TIP3      OH2            64.3224043086        7.9592393531       11.1756259785  TIP3      3486            0.0000000000
     27807      3622  TIP3      H1             65.1098075344        7.4326895465       11.4219119594  TIP3      3486            0.0000000000
     27808      3622  TIP3      H2             63.7187661472        7.2688015826       10.8240502350  TIP3      3486            0.0000000000
     27809      3623  TIP3      OH2            60.8155746050        2.5946344232       15.4260799909  TIP3      3487            0.0000000000
     27810      3623  TIP3      H1             60.6918605851        3.2520603812       14.7067202021  TIP3      3487            0.0000000000
     27811      3623  TIP3      H2             60.0848796608        2.8657539521       16.0193378677  TIP3      3487            0.0000000000
     27812      3624  TIP3      OH2            63.6954269462       10.5290017762       15.4741880870  TIP3      3488            0.0000000000
     27813      3624  TIP3      H1             63.0277431637       11.1693707585       15.8113965471  TIP3      3488            0.0000000000
     27814      3624  TIP3      H2             64.4216423190       11.1189338367       15.1769251158  TIP3      3488            0.0000000000
     27815      3625  TIP3      OH2            60.9419894795        4.7483196188       13.6821476115  TIP3      3489            0.0000000000
     27816      3625  TIP3      H1             61.4559705795        5.4765312145       14.0936416969  TIP3      3489            0.0000000000
     27817      3625  TIP3      H2             61.4596738323        4.5839376965       12.8472913506  TIP3      3489            0.0000000000
     27818      3626  TIP3      OH2            61.9398616589       12.3237492414       16.2330295171  TIP3      3490            0.0000000000
     27819      3626  TIP3      H1             61.8637892746       12.8837001220       15.4440218289  TIP3      3490            0.0000000000
     27820      3626  TIP3      H2             61.1073003676       12.5470242543       16.7175932253  TIP3      3490            0.0000000000
     27821      3627  TIP3      OH2            58.0751225559       11.9813457956        7.5428441411  TIP3      3491            0.0000000000
     27822      3627  TIP3      H1             57.9529546237       12.4291141766        6.6823727695  TIP3      3491            0.0000000000
     27823      3627  TIP3      H2             58.2989586843       12.7777565970        8.0923052899  TIP3      3491            0.0000000000
     27824      3628  TIP3      OH2            65.1947050110        0.5227930445       13.4553821661  TIP3      3492            0.0000000000
     27825      3628  TIP3      H1             65.1653739966       -0.0433559381       12.6670016635  TIP3      3492            0.0000000000
     27826      3628  TIP3      H2             64.3209866008        0.9575218281       13.4616727057  TIP3      3492            0.0000000000
     27827      3629  TIP3      OH2            62.1917235474        9.6631868342       10.4751739120  TIP3      3493            0.0000000000
     27828      3629  TIP3      H1             62.2333026081        9.3298841329        9.5611493777  TIP3      3493            0.0000000000
     27829      3629  TIP3      H2             62.9537100464        9.1815905717       10.8451802174  TIP3      3493            0.0000000000
     27830      3630  TIP3      OH2            63.4949303313       12.7643002223       13.0331262743  TIP3      3494            0.0000000000
     27831      3630  TIP3      H1             63.5724019730       12.9056321192       12.0692593712  TIP3      3494            0.0000000000
     27832      3630  TIP3      H2             64.3960688353       12.5361945442       13.2943189808  TIP3      3494            0.0000000000
     27833      3631  TIP3      OH2            62.5063345350        8.7237733874       13.9382828484  TIP3      3495            0.0000000000
     27834      3631  TIP3      H1             61.8703996364        9.0100630369       13.2576598070  TIP3      3495            0.0000000000
     27835      3631  TIP3      H2             62.7790657109        9.5901218990       14.3146037991  TIP3      3495            0.0000000000
     27836      3632  TIP3      OH2            63.5966192506       12.7165569551       18.3101650037  TIP3      3496            0.0000000000
     27837      3632  TIP3      H1             63.1277398247       13.4650479994       18.7282457424  TIP3      3496            0.0000000000
     27838      3632  TIP3      H2             63.0758563937       12.6080451333       17.4840015279  TIP3      3496            0.0000000000
     27839      3633  TIP3      OH2            61.0556301124        9.6575982129       17.1297707503  TIP3      3497            0.0000000000
     27840      3633  TIP3      H1             61.2790664336       10.6067273902       17.1922652092  TIP3      3497            0.0000000000
     27841      3633  TIP3      H2             60.4210757418        9.5617540387       17.8569419367  TIP3      3497            0.0000000000
     27842      3634  TIP3      OH2            61.9289770509       14.5671064637       19.4933292485  TIP3      3498            0.0000000000
     27843      3634  TIP3      H1             61.7648157221       14.9760986761       18.6183590516  TIP3      3498            0.0000000000
     27844      3634  TIP3      H2             61.0269705498       14.3672122325       19.8221018145  TIP3      3498            0.0000000000
     27845      3635  TIP3      OH2            61.6835690877        8.8602547668        7.5721647525  TIP3      3499            0.0000000000
     27846      3635  TIP3      H1             61.1488707626        9.6498443370        7.3259198630  TIP3      3499            0.0000000000
     27847      3635  TIP3      H2             61.0168493842        8.1687865638        7.6960899725  TIP3      3499            0.0000000000
     27848      3636  TIP3      OH2            57.6114859080       11.3247277702       17.1817093445  TIP3      3500            0.0000000000
     27849      3636  TIP3      H1             57.2799221145       11.2757614800       16.2725054399  TIP3      3500            0.0000000000
     27850      3636  TIP3      H2             57.5965511466       10.3624555480       17.4076812178  TIP3      3500            0.0000000000
     27851      3637  TIP3      OH2            57.6689337347       14.2963123836       13.2669046227  TIP3      3501            0.0000000000
     27852      3637  TIP3      H1             58.5360883082       13.9359621160       13.0341327325  TIP3      3501            0.0000000000
     27853      3637  TIP3      H2             57.8890750628       14.8348265553       14.0400347632  TIP3      3501            0.0000000000
     27854      3638  TIP3      OH2            60.6332999890       16.8852505756        9.7674039941  TIP3      3502            0.0000000000
     27855      3638  TIP3      H1             60.8083606572       16.5820725791       10.6953097927  TIP3      3502            0.0000000000
     27856      3638  TIP3      H2             59.7917726066       16.4454877893        9.5651035647  TIP3      3502            0.0000000000
     27857      3639  TIP3      OH2            59.8227204253       12.6220937237       17.7759300323  TIP3      3503            0.0000000000
     27858      3639  TIP3      H1             59.9471838352       12.2887061090       18.6871462374  TIP3      3503            0.0000000000
     27859      3639  TIP3      H2             58.9731008146       12.1931134664       17.5121230879  TIP3      3503            0.0000000000
     27860      3640  TIP3      OH2            62.4344717021        1.6117937294       13.4060443403  TIP3      3504            0.0000000000
     27861      3640  TIP3      H1             61.6554461424        1.4807635005       12.8111735704  TIP3      3504            0.0000000000
     27862      3640  TIP3      H2             61.9732802506        1.8841931056       14.2197559681  TIP3      3504            0.0000000000
     27863      3641  TIP3      OH2            62.4092655948        6.3907995539       15.4990508129  TIP3      3505            0.0000000000
     27864      3641  TIP3      H1             61.7218206307        6.2417874084       16.1948876458  TIP3      3505            0.0000000000
     27865      3641  TIP3      H2             62.0211085579        7.1536954458       15.0212885331  TIP3      3505            0.0000000000
     27866      3642  TIP3      OH2            62.3977361316        6.4953968478        9.8144821765  TIP3      3506            0.0000000000
     27867      3642  TIP3      H1             61.4197814329        6.4428645965        9.7896903520  TIP3      3506            0.0000000000
     27868      3642  TIP3      H2             62.5962272124        6.2878216042        8.8688896103  TIP3      3506            0.0000000000
     27869      3643  TIP3      OH2            60.0441580468        6.1281660493       16.6807324644  TIP3      3507            0.0000000000
     27870      3643  TIP3      H1             59.6239019305        6.3071444070       17.5292118527  TIP3      3507            0.0000000000
     27871      3643  TIP3      H2             59.5780622809        5.3061848785       16.4438302662  TIP3      3507            0.0000000000
     27872      3644  TIP3      OH2            64.3189090542        4.0504136517        4.3927010180  TIP3      3508            0.0000000000
     27873      3644  TIP3      H1             63.7739273011        3.3222010016        4.7370066621  TIP3      3508            0.0000000000
     27874      3644  TIP3      H2             63.6990279774        4.7985432023        4.4970175847  TIP3      3508            0.0000000000
     27875      3645  TIP3      OH2            56.9602507949        3.6676985253       10.6781856914  TIP3      3509            0.0000000000
     27876      3645  TIP3      H1             57.5868596489        3.4968476048       11.4087410360  TIP3      3509            0.0000000000
     27877      3645  TIP3      H2             57.0830568253        4.6124555677       10.5117179072  TIP3      3509            0.0000000000
     27878      3646  TIP3      OH2            58.6940181795        4.0686188505        6.4819109601  TIP3      3510            0.0000000000
     27879      3646  TIP3      H1             59.2152725323        4.1421273591        5.6654794745  TIP3      3510            0.0000000000
     27880      3646  TIP3      H2             58.5227021292        5.0081415378        6.6153005495  TIP3      3510            0.0000000000
     27881      3647  TIP3      OH2            64.7877639904        4.2260247246       11.0714889916  TIP3      3511            0.0000000000
     27882      3647  TIP3      H1             64.0424106158        3.9161270555       11.6265572846  TIP3      3511            0.0000000000
     27883      3647  TIP3      H2             65.5582408108        3.8352331092       11.4920175700  TIP3      3511            0.0000000000
     27884      3648  TIP3      OH2            59.8496517849        5.6684913756        9.5086122186  TIP3      3512            0.0000000000
     27885      3648  TIP3      H1             58.8815095011        5.5921661447        9.3066525511  TIP3      3512            0.0000000000
     27886      3648  TIP3      H2             60.1787454053        4.7505006244        9.3552116412  TIP3      3512            0.0000000000
     27887      3649  TIP3      OH2            62.8514304518        5.4787653350        7.3775076873  TIP3      3513            0.0000000000
     27888      3649  TIP3      H1             63.8027712409        5.3384383760        7.5914567577  TIP3      3513            0.0000000000
     27889      3649  TIP3      H2             62.9036320052        5.8305266610        6.4654579751  TIP3      3513            0.0000000000
     27890      3650  TIP3      OH2            62.8627748163        6.2228834409        4.7352601319  TIP3      3514            0.0000000000
     27891      3650  TIP3      H1             62.0255053808        6.2568440592        4.2459738385  TIP3      3514            0.0000000000
     27892      3650  TIP3      H2             63.4050759091        6.8588858624        4.2355358839  TIP3      3514            0.0000000000
     27893      3651  TIP3      OH2            60.0998866402       11.3066427097       20.3197828705  TIP3      3515            0.0000000000
     27894      3651  TIP3      H1             60.8949161561       11.0565727315       20.8196588985  TIP3      3515            0.0000000000
     27895      3651  TIP3      H2             59.4203494211       10.8097642758       20.8299040307  TIP3      3515            0.0000000000
     27896      3652  TIP3      OH2            -0.1082570154        6.3208853214       12.2854129374  TIP3      3516            0.0000000000
     27897      3652  TIP3      H1              0.7762687392        6.6161940643       12.0201261262  TIP3      3516            0.0000000000
     27898      3652  TIP3      H2              0.0018757015        5.3684501113       12.4108243610  TIP3      3516            0.0000000000
     27899      3653  TIP3      OH2            60.8040668512        3.1364001723        9.4507011475  TIP3      3517            0.0000000000
     27900      3653  TIP3      H1             60.2378148252        2.3563171261        9.5909144597  TIP3      3517            0.0000000000
     27901      3653  TIP3      H2             61.3469265829        2.8414246257        8.7062407139  TIP3      3517            0.0000000000
     27902      3654  TIP3      OH2            64.3195906940        4.5896200194       14.9020595665  TIP3      3518            0.0000000000
     27903      3654  TIP3      H1             63.7045806569        5.2458632732       15.2896865653  TIP3      3518            0.0000000000
     27904      3654  TIP3      H2             65.2032549616        4.9818531644       15.0844191249  TIP3      3518            0.0000000000
     27905      3655  TIP3      OH2            65.6779981715       10.7622805284        7.0634314233  TIP3      3519            0.0000000000
     27906      3655  TIP3      H1             64.9033982632       10.3025828868        6.7060587334  TIP3      3519            0.0000000000
     27907      3655  TIP3      H2             65.2783105020       11.1575813801        7.8740836342  TIP3      3519            0.0000000000
     27908      3656  TIP3      OH2            60.5365492942       10.6648492332       12.7847099498  TIP3      3520            0.0000000000
     27909      3656  TIP3      H1             60.8451209214       10.6083513624       11.8604603818  TIP3      3520            0.0000000000
     27910      3656  TIP3      H2             59.8203272831        9.9997488870       12.7865308202  TIP3      3520            0.0000000000
     27911      3657  TIP3      OH2            57.4787062304        8.7807823248       17.9703818212  TIP3      3521            0.0000000000
     27912      3657  TIP3      H1             57.3973263497        8.1444159975       18.7202526746  TIP3      3521            0.0000000000
     27913      3657  TIP3      H2             56.6673122770        8.5253319721       17.4826258741  TIP3      3521            0.0000000000
     27914      3658  TIP3      OH2            65.1646747869        8.2128353638       19.6095159629  TIP3      3522            0.0000000000
     27915      3658  TIP3      H1             64.4203948892        8.0531398275       18.9861230185  TIP3      3522            0.0000000000
     27916      3658  TIP3      H2             65.6501548250        7.3791086493       19.5595912554  TIP3      3522            0.0000000000
     27917      3659  TIP3      OH2            63.2432497239       13.9137023022       10.4059866942  TIP3      3523            0.0000000000
     27918      3659  TIP3      H1             63.7442821801       14.6724707424       10.0646518626  TIP3      3523            0.0000000000
     27919      3659  TIP3      H2             62.3507040120       14.1664290935       10.1247694288  TIP3      3523            0.0000000000
     27920      3660  TIP3      OH2            59.1251267302        8.8439274489        4.0929829773  TIP3      3524            0.0000000000
     27921      3660  TIP3      H1             59.4658750095        9.2934096184        4.8849235486  TIP3      3524            0.0000000000
     27922      3660  TIP3      H2             58.1692389660        8.8080143528        4.2792800929  TIP3      3524            0.0000000000
     27923      3661  TIP3      OH2            64.6273336180       11.8262862732        9.3326886252  TIP3      3525            0.0000000000
     27924      3661  TIP3      H1             64.0959065213       12.5827734027        9.6576003471  TIP3      3525            0.0000000000
     27925      3661  TIP3      H2             64.3507139151       11.1183556005        9.9373293464  TIP3      3525            0.0000000000
     27926      3662  TIP3      OH2            64.8786330310       15.8404207728       16.4181968702  TIP3      3526            0.0000000000
     27927      3662  TIP3      H1             65.3271138613       16.6975463044       16.3762547572  TIP3      3526            0.0000000000
     27928      3662  TIP3      H2             65.4323524630       15.3572341929       17.0509810628  TIP3      3526            0.0000000000
     27929      3663  TIP3      OH2            63.2770100275       17.2546267922        9.0649794622  TIP3      3527            0.0000000000
     27930      3663  TIP3      H1             62.3458474068       17.1874055378        9.3678057501  TIP3      3527            0.0000000000
     27931      3663  TIP3      H2             63.5530320166       18.0860069265        9.5176974247  TIP3      3527            0.0000000000
     27932      3664  TIP3      OH2            58.7742971872        3.4323411435       17.3813625920  TIP3      3528            0.0000000000
     27933      3664  TIP3      H1             58.4320737206        4.0990256491       18.0230383518  TIP3      3528            0.0000000000
     27934      3664  TIP3      H2             58.9797139220        2.6949500151       17.9802315372  TIP3      3528            0.0000000000
     27935      3665  TIP3      OH2            59.1020484442       15.4601361401       16.1062107842  TIP3      3529            0.0000000000
     27936      3665  TIP3      H1             59.6692149032       14.6961072912       16.2897769812  TIP3      3529            0.0000000000
     27937      3665  TIP3      H2             59.3773071685       16.0567852238       16.8156874422  TIP3      3529            0.0000000000
     27938      3666  TIP3      OH2            63.5189252758       13.6318734323        5.6342947526  TIP3      3530            0.0000000000
     27939      3666  TIP3      H1             64.0449417413       13.0941602984        6.2382213089  TIP3      3530            0.0000000000
     27940      3666  TIP3      H2             63.6307517296       14.5473728386        5.9815464164  TIP3      3530            0.0000000000
     27941      3667  TIP3      OH2            60.0823300038       10.7088307841        6.2614010558  TIP3      3531            0.0000000000
     27942      3667  TIP3      H1             59.2012864229       10.9516989847        6.6273882738  TIP3      3531            0.0000000000
     27943      3667  TIP3      H2             60.3923778453       11.5948435830        5.9808127083  TIP3      3531            0.0000000000
     27944      3668  TIP3      OH2            65.2298969852        4.9304006962        8.3833222156  TIP3      3532            0.0000000000
     27945      3668  TIP3      H1             66.1614232268        4.7067303196        8.4505920214  TIP3      3532            0.0000000000
     27946      3668  TIP3      H2             64.9154032964        4.7522098579        9.2965465003  TIP3      3532            0.0000000000
     27947      3669  TIP3      OH2            63.7348284915       16.2485897303        6.6153431802  TIP3      3533            0.0000000000
     27948      3669  TIP3      H1             63.7780112310       17.0108905310        6.0102088856  TIP3      3533            0.0000000000
     27949      3669  TIP3      H2             63.4611814504       16.6933662933        7.4529403766  TIP3      3533            0.0000000000
     27950      3670  TIP3      OH2            62.1162946766        3.1456944133        5.8093662053  TIP3      3534            0.0000000000
     27951      3670  TIP3      H1             62.0338307218        3.9030467778        6.4164465994  TIP3      3534            0.0000000000
     27952      3670  TIP3      H2             62.8766769876        2.6788609857        6.2426856840  TIP3      3534            0.0000000000
     27953      3671  TIP3      OH2            60.7188464238       13.2371396902        5.0051108490  TIP3      3535            0.0000000000
     27954      3671  TIP3      H1             61.4647928881       13.6861427649        5.4386634015  TIP3      3535            0.0000000000
     27955      3671  TIP3      H2             61.2144145551       12.6444789379        4.3949305816  TIP3      3535            0.0000000000
     27956      3672  TIP3      OH2            59.2752183773        6.1673725523        4.7015078663  TIP3      3536            0.0000000000
     27957      3672  TIP3      H1             59.5137827508        7.1078568193        4.7696392657  TIP3      3536            0.0000000000
     27958      3672  TIP3      H2             58.5780084517        6.2288590015        4.0467336458  TIP3      3536            0.0000000000
     27959      3673  TIP3      OH2            60.0284527442        0.8707351365       12.5148685738  TIP3      3537            0.0000000000
     27960      3673  TIP3      H1             59.7664936779        0.7245165750       11.5772948323  TIP3      3537            0.0000000000
     27961      3673  TIP3      H2             59.7971562538        0.0234268027       12.9395934995  TIP3      3537            0.0000000000
     27962      3674  TIP3      OH2            58.3838098087       14.4336832364        8.6336097688  TIP3      3538            0.0000000000
     27963      3674  TIP3      H1             57.8049005776       15.0165513690        9.1419468068  TIP3      3538            0.0000000000
     27964      3674  TIP3      H2             58.6273221129       15.0565804876        7.9118734474  TIP3      3538            0.0000000000
     27965      3675  TIP3      OH2            57.8864661837       17.5863835182       20.5335250141  TIP3      3539            0.0000000000
     27966      3675  TIP3      H1             58.3019715652       17.4789090717       21.4064795337  TIP3      3539            0.0000000000
     27967      3675  TIP3      H2             57.4040589414       16.7521634828       20.4008934341  TIP3      3539            0.0000000000
     27968      3676  TIP3      OH2            61.6474235408       16.6822804916       21.4001952382  TIP3      3540            0.0000000000
     27969      3676  TIP3      H1             62.3422197101       16.4475806491       22.0356724453  TIP3      3540            0.0000000000
     27970      3676  TIP3      H2             61.8622706532       16.1021523221       20.6374835507  TIP3      3540            0.0000000000
     27971      3677  TIP3      OH2            57.8254605123       10.3264144641       21.6773944786  TIP3      3541            0.0000000000
     27972      3677  TIP3      H1             57.1169241848        9.9078555579       22.2127617072  TIP3      3541            0.0000000000
     27973      3677  TIP3      H2             57.2786516728       10.7504188792       20.9895170294  TIP3      3541            0.0000000000
     27974      3678  TIP3      OH2            62.0660156182       11.3581994364        3.5649793636  TIP3      3542            0.0000000000
     27975      3678  TIP3      H1             62.4911057890       10.7938723676        4.2425466832  TIP3      3542            0.0000000000
     27976      3678  TIP3      H2             62.7337111998       11.3734922917        2.8653951730  TIP3      3542            0.0000000000
     27977      3679  TIP3      OH2            64.3824469512       11.4147337978       20.5240023314  TIP3      3543            0.0000000000
     27978      3679  TIP3      H1             64.1474990228       11.8263433737       19.6604120849  TIP3      3543            0.0000000000
     27979      3679  TIP3      H2             64.3742600575       10.4631324308       20.3036701545  TIP3      3543            0.0000000000
     27980      3680  TIP3      OH2            59.3409687063        8.1360089006       21.0631267249  TIP3      3544            0.0000000000
     27981      3680  TIP3      H1             59.2821792422        7.3803772933       21.6722919481  TIP3      3544            0.0000000000
     27982      3680  TIP3      H2             58.7619011736        8.8027685819       21.4910002816  TIP3      3544            0.0000000000
     27983      3681  TIP3      OH2            63.3146989041        9.8532317196        5.5385882253  TIP3      3545            0.0000000000
     27984      3681  TIP3      H1             62.8215420401        9.3270479288        6.2106636789  TIP3      3545            0.0000000000
     27985      3681  TIP3      H2             63.9019724061        9.1776734581        5.1483612850  TIP3      3545            0.0000000000
     27986      3682  TIP3      OH2            62.8119631936        7.8191879504       18.1032525541  TIP3      3546            0.0000000000
     27987      3682  TIP3      H1             62.0550468363        7.8721601833       18.7154225991  TIP3      3546            0.0000000000
     27988      3682  TIP3      H2             62.5577100471        8.4382786111       17.3884299076  TIP3      3546            0.0000000000
     27989      3683  TIP3      OH2            65.0103608244        8.0973310810        4.0497440584  TIP3      3547            0.0000000000
     27990      3683  TIP3      H1             65.4463584480        7.7257550050        3.2681960775  TIP3      3547            0.0000000000
     27991      3683  TIP3      H2             65.8044130836        8.3612410042        4.5497353025  TIP3      3547            0.0000000000
     27992      3684  TIP3      OH2            63.4997737388        5.0489262539       18.5652213211  TIP3      3548            0.0000000000
     27993      3684  TIP3      H1             63.2166159842        4.3743674764       17.9010230308  TIP3      3548            0.0000000000
     27994      3684  TIP3      H2             63.1974410282        5.8967534869       18.1839865013  TIP3      3548            0.0000000000
     27995      3685  TIP3      OH2            63.0134727265        3.3016726575       16.7155843840  TIP3      3549            0.0000000000
     27996      3685  TIP3      H1             63.6064044756        3.5866463933       15.9729475364  TIP3      3549            0.0000000000
     27997      3685  TIP3      H2             62.2115742511        2.9813271756       16.2487222240  TIP3      3549            0.0000000000
     27998      3686  TIP3      OH2            65.4149534860        8.8001981074       16.5129604056  TIP3      3550            0.0000000000
     27999      3686  TIP3      H1             66.1488045616        9.1504528599       15.9759239814  TIP3      3550            0.0000000000
     28000      3686  TIP3      H2             64.7125964652        9.4612202657       16.3013486419  TIP3      3550            0.0000000000
     28001      3687  TIP3      OH2            61.9831316159        5.8511853097       20.6388541692  TIP3      3551            0.0000000000
     28002      3687  TIP3      H1             61.1252720587        5.3885912863       20.6321943867  TIP3      3551            0.0000000000
     28003      3687  TIP3      H2             62.5356487643        5.3421537245       20.0103181863  TIP3      3551            0.0000000000
     28004      3688  TIP3      OH2            63.7153970848        0.7991105481       17.2486641464  TIP3      3552            0.0000000000
     28005      3688  TIP3      H1             63.4989860822        1.7616743648       17.1998534390  TIP3      3552            0.0000000000
     28006      3688  TIP3      H2             63.0445965238        0.4036641249       16.6651649378  TIP3      3552            0.0000000000
     28007      3689  TIP3      OH2            65.0218721164        5.2013230815       20.7858518790  TIP3      3553            0.0000000000
     28008      3689  TIP3      H1             64.5378664964        4.5569066683       21.3476107506  TIP3      3553            0.0000000000
     28009      3689  TIP3      H2             64.6476967388        4.9929827643       19.9103926481  TIP3      3553            0.0000000000
     28010      3690  TIP3      OH2            59.7848113610        3.9449789186       20.9643865534  TIP3      3554            0.0000000000
     28011      3690  TIP3      H1             59.4855227077        3.1189098438       20.5340786786  TIP3      3554            0.0000000000
     28012      3690  TIP3      H2             60.0591061721        3.5713932769       21.8320916893  TIP3      3554            0.0000000000
     28013      3691  TIP3      OH2            65.0976190725        0.6397392134       19.5400563210  TIP3      3555            0.0000000000
     28014      3691  TIP3      H1             65.0549960059       -0.2941977025       19.8107184988  TIP3      3555            0.0000000000
     28015      3691  TIP3      H2             64.6120937317        0.6324633390       18.6924007800  TIP3      3555            0.0000000000
     28016      3692  TIP3      OH2            64.3353619059        0.9694716158       22.0673248538  TIP3      3556            0.0000000000
     28017      3692  TIP3      H1             64.6339693348        1.1460658103       21.1466517224  TIP3      3556            0.0000000000
     28018      3692  TIP3      H2             64.2759289688        1.8640761657       22.4484796078  TIP3      3556            0.0000000000
     28019      3693  TIP3      OH2            64.2385296848       18.2543071631        4.7717385186  TIP3      3557            0.0000000000
     28020      3693  TIP3      H1             64.7844208528       18.6844536764        5.4444256180  TIP3      3557            0.0000000000
     28021      3693  TIP3      H2             64.6453536785       18.5449260379        3.9477666891  TIP3      3557            0.0000000000
     28022      3694  TIP3      OH2            58.0077636272       12.6019870824        4.4321097811  TIP3      3558            0.0000000000
     28023      3694  TIP3      H1             58.9467438361       12.8417506921        4.5652773236  TIP3      3558            0.0000000000
     28024      3694  TIP3      H2             57.9688105372       12.6333683954        3.4516549548  TIP3      3558            0.0000000000
     28025      3695  TIP3      OH2            56.9667580699       18.0820630790        9.6622152850  TIP3      3559            0.0000000000
     28026      3695  TIP3      H1             56.2271359474       17.6232849043        9.2011822838  TIP3      3559            0.0000000000
     28027      3695  TIP3      H2             57.2051316171       17.4045860071       10.3352391197  TIP3      3559            0.0000000000
     28028      3696  TIP3      OH2            57.8903110933       16.4390895265       11.5306420162  TIP3      3560            0.0000000000
     28029      3696  TIP3      H1             57.4718861860       15.6299107844       11.8793904059  TIP3      3560            0.0000000000
     28030      3696  TIP3      H2             58.0735268598       16.9181430384       12.3666629633  TIP3      3560            0.0000000000
     28031      3697  TIP3      OH2            57.6125651932        9.8203395500       14.3172848620  TIP3      3561            0.0000000000
     28032      3697  TIP3      H1             57.7214665993        9.5800678142       13.3723093869  TIP3      3561            0.0000000000
     28033      3697  TIP3      H2             58.4088767721        9.3654989048       14.6844718571  TIP3      3561            0.0000000000
     28034      3698  TIP3      OH2            57.9586679107        5.0485305353       19.4346921775  TIP3      3562            0.0000000000
     28035      3698  TIP3      H1             58.6521941341        4.8798005898       20.1140402229  TIP3      3562            0.0000000000
     28036      3698  TIP3      H2             57.3159596070        4.3570298370       19.7160851388  TIP3      3562            0.0000000000
     28037      3699  TIP3      OH2            58.4616201344        3.1017171236       12.8613214645  TIP3      3563            0.0000000000
     28038      3699  TIP3      H1             58.7912296467        2.1823139163       12.8943875195  TIP3      3563            0.0000000000
     28039      3699  TIP3      H2             59.2526426932        3.6238651238       13.0710010571  TIP3      3563            0.0000000000
     28040      3700  TIP3      OH2            57.1065200042        6.4242950925       13.7528761796  TIP3      3564            0.0000000000
     28041      3700  TIP3      H1             57.8052300321        6.1815497908       13.1025278916  TIP3      3564            0.0000000000
     28042      3700  TIP3      H2             57.6002412681        7.0298608686       14.3214074344  TIP3      3564            0.0000000000
     28043      3701  TIP3      OH2            56.8206814122        2.5079737382        7.9729366854  TIP3      3565            0.0000000000
     28044      3701  TIP3      H1             55.9812040828        2.8980473446        8.2751218549  TIP3      3565            0.0000000000
     28045      3701  TIP3      H2             57.2701074319        3.2654851582        7.5712462517  TIP3      3565            0.0000000000
     28046      3702  TIP3      OH2            56.8221771497        1.1305652583       16.1176825081  TIP3      3566            0.0000000000
     28047      3702  TIP3      H1             57.5282809693        1.6001385544       16.5855831417  TIP3      3566            0.0000000000
     28048      3702  TIP3      H2             56.4059264715        1.8204728478       15.5543802939  TIP3      3566            0.0000000000
     28049      3703  TIP3      OH2            59.3349443695       14.1006409430       20.3752245359  TIP3      3567            0.0000000000
     28050      3703  TIP3      H1             58.5564696697       14.5288481567       19.9775879816  TIP3      3567            0.0000000000
     28051      3703  TIP3      H2             59.1184500063       13.1597202701       20.2821664167  TIP3      3567            0.0000000000
     28052      3704  TIP3      OH2            62.2565219292       15.7874697287       17.0004934392  TIP3      3568            0.0000000000
     28053      3704  TIP3      H1             62.1165541420       16.7070740840       16.6806437953  TIP3      3568            0.0000000000
     28054      3704  TIP3      H2             63.2250109571       15.7143520684       16.8544058205  TIP3      3568            0.0000000000
     28055      3705  TIP3      OH2            59.5702849470       18.8438261590       16.7083883213  TIP3      3569            0.0000000000
     28056      3705  TIP3      H1             58.8223341881       19.0979390706       16.1321763455  TIP3      3569            0.0000000000
     28057      3705  TIP3      H2             59.2233916521       19.0241456429       17.5902658491  TIP3      3569            0.0000000000
     28058      3706  TIP3      OH2            61.9525905995       18.1972779543       15.8813311369  TIP3      3570            0.0000000000
     28059      3706  TIP3      H1             61.0753407795       18.5121600066       16.2176280366  TIP3      3570            0.0000000000
     28060      3706  TIP3      H2             62.0410027456       18.7813928143       15.0928189980  TIP3      3570            0.0000000000
     28061      3707  TIP3      OH2            59.5491177805       17.2257300719       13.7802725451  TIP3      3571            0.0000000000
     28062      3707  TIP3      H1             59.5416844542       16.7145462588       14.6132305266  TIP3      3571            0.0000000000
     28063      3707  TIP3      H2             60.3722275876       16.9091722995       13.3442308108  TIP3      3571            0.0000000000
     28064      3708  TIP3      OH2            61.4516406710       16.1480994400       12.1532791655  TIP3      3572            0.0000000000
     28065      3708  TIP3      H1             61.1852144879       15.2165655380       12.2978587022  TIP3      3572            0.0000000000
     28066      3708  TIP3      H2             62.3035746323       16.1342995265       12.6549692322  TIP3      3572            0.0000000000
     28067      3709  TIP3      OH2            63.5038526907       15.8019404683       13.6845741929  TIP3      3573            0.0000000000
     28068      3709  TIP3      H1             64.2372269307       15.2417444545       13.4002004776  TIP3      3573            0.0000000000
     28069      3709  TIP3      H2             63.6557883093       15.8729095484       14.6382616760  TIP3      3573            0.0000000000
     28070      3710  TIP3      OH2            59.3905205149        0.6534671279        9.7772029490  TIP3      3574            0.0000000000
     28071      3710  TIP3      H1             58.6943738119        0.5112497027        9.1076910625  TIP3      3574            0.0000000000
     28072      3710  TIP3      H2             60.1385703821        0.1435126227        9.4027967679  TIP3      3574            0.0000000000
     28073      3711  TIP3      OH2            58.3190354341        0.5509484825        6.7754495774  TIP3      3575            0.0000000000
     28074      3711  TIP3      H1             58.9486810563        1.0218322083        6.1984573512  TIP3      3575            0.0000000000
     28075      3711  TIP3      H2             57.8704462413        1.2870076376        7.2483490459  TIP3      3575            0.0000000000
     28076      3712  TIP3      OH2            63.4045150704        0.8695529531       10.2940530233  TIP3      3576            0.0000000000
     28077      3712  TIP3      H1             64.1634926711        1.4498216961       10.4258786115  TIP3      3576            0.0000000000
     28078      3712  TIP3      H2             63.8425031044        0.0236601200       10.1629821548  TIP3      3576            0.0000000000
     28079      3713  TIP3      OH2            58.3279837668       16.4660021456        6.9210973466  TIP3      3577            0.0000000000
     28080      3713  TIP3      H1             57.4715723096       16.4702041357        6.4470677125  TIP3      3577            0.0000000000
     28081      3713  TIP3      H2             58.5497098910       17.4074407760        6.7830078823  TIP3      3577            0.0000000000
     28082      3714  TIP3      OH2            60.1067488519        1.3873451150        4.8543058011  TIP3      3578            0.0000000000
     28083      3714  TIP3      H1             60.5560741371        1.7064698848        4.0574089055  TIP3      3578            0.0000000000
     28084      3714  TIP3      H2             60.7847006473        1.6689393290        5.4964252991  TIP3      3578            0.0000000000
     28085      3715  TIP3      OH2            64.2326668326        2.0203392055        6.7812031670  TIP3      3579            0.0000000000
     28086      3715  TIP3      H1             64.5369466063        1.2217441941        6.3348111366  TIP3      3579            0.0000000000
     28087      3715  TIP3      H2             65.0791724380        2.3027228266        7.1858037366  TIP3      3579            0.0000000000
     28088      3716  TIP3      OH2            59.1514560548        1.4198193998       19.7510302248  TIP3      3580            0.0000000000
     28089      3716  TIP3      H1             58.6467974365        0.6544340362       19.4227155465  TIP3      3580            0.0000000000
     28090      3716  TIP3      H2             59.6222203082        1.0414101275       20.5155787392  TIP3      3580            0.0000000000
     28091      3717  TIP3      OH2            61.7020611277        0.2952394181       21.7393282774  TIP3      3581            0.0000000000
     28092      3717  TIP3      H1             62.6021592738        0.6668627824       21.8533050695  TIP3      3581            0.0000000000
     28093      3717  TIP3      H2             61.7740642179       -0.5430657674       22.2114734085  TIP3      3581            0.0000000000
     28094      3718  TIP3      OH2            60.2943208027       18.0774569315        3.9246997738  TIP3      3582            0.0000000000
     28095      3718  TIP3      H1             59.4276721180       18.2101546780        4.3368910588  TIP3      3582            0.0000000000
     28096      3718  TIP3      H2             60.5590770195       17.2230910179        4.2849990861  TIP3      3582            0.0000000000
     28097      3719  TIP3      OH2            12.5584443037       28.7700275944       10.1248639567  TIP3      3583            0.0000000000
     28098      3719  TIP3      H1             12.2269216358       29.6842227483       10.2093311102  TIP3      3583            0.0000000000
     28099      3719  TIP3      H2             11.8434185106       28.3658407992        9.6227231512  TIP3      3583            0.0000000000
     28100      3720  TIP3      OH2            10.9196405886       27.6231916547       13.4038699854  TIP3      3584            0.0000000000
     28101      3720  TIP3      H1             11.1843919833       27.0654591187       14.1568768469  TIP3      3584            0.0000000000
     28102      3720  TIP3      H2             10.3157912648       27.0575080808       12.9054988613  TIP3      3584            0.0000000000
     28103      3721  TIP3      OH2             3.6725490299       27.5248364486       14.9333695531  TIP3      3585            0.0000000000
     28104      3721  TIP3      H1              3.5135694267       26.6217251536       15.2881639798  TIP3      3585            0.0000000000
     28105      3721  TIP3      H2              4.0206834840       27.9637746678       15.7424010628  TIP3      3585            0.0000000000
     28106      3722  TIP3      OH2            14.5863871245       30.5955819646       12.0322889801  TIP3      3586            0.0000000000
     28107      3722  TIP3      H1             14.2786251051       29.8815479563       12.6164368908  TIP3      3586            0.0000000000
     28108      3722  TIP3      H2             15.0352289035       31.1935474051       12.6518432510  TIP3      3586            0.0000000000
     28109      3723  TIP3      OH2             4.3684492652       32.1155021881       12.8089022708  TIP3      3587            0.0000000000
     28110      3723  TIP3      H1              4.2138336641       31.2069624312       13.1276580329  TIP3      3587            0.0000000000
     28111      3723  TIP3      H2              5.3454154191       32.1304133145       12.9460145763  TIP3      3587            0.0000000000
     28112      3724  TIP3      OH2             0.6103837533       26.3779389998        9.2359522528  TIP3      3588            0.0000000000
     28113      3724  TIP3      H1              0.5548392255       26.9531105037        8.4678774134  TIP3      3588            0.0000000000
     28114      3724  TIP3      H2              0.2861091376       25.5377869407        8.8528052568  TIP3      3588            0.0000000000
     28115      3725  TIP3      OH2             1.5738675692       27.7940099419       11.3678582531  TIP3      3589            0.0000000000
     28116      3725  TIP3      H1              1.9533035138       26.9351929307       11.6518924627  TIP3      3589            0.0000000000
     28117      3725  TIP3      H2              1.0675230320       27.4334829330       10.5913434153  TIP3      3589            0.0000000000
     28118      3726  TIP3      OH2            11.9723169004       35.9896154680       11.6653025450  TIP3      3590            0.0000000000
     28119      3726  TIP3      H1             12.7035157589       35.4684103321       11.2597399223  TIP3      3590            0.0000000000
     28120      3726  TIP3      H2             11.8164913599       35.4281431719       12.4343012336  TIP3      3590            0.0000000000
     28121      3727  TIP3      OH2             9.2174903631       30.2476083998       14.6408883223  TIP3      3591            0.0000000000
     28122      3727  TIP3      H1              9.4429373208       30.0031455860       13.7358836913  TIP3      3591            0.0000000000
     28123      3727  TIP3      H2             10.1113955115       30.3599504827       15.0239722480  TIP3      3591            0.0000000000
     28124      3728  TIP3      OH2            17.9183880474       21.7076363962       14.5794195361  TIP3      3592            0.0000000000
     28125      3728  TIP3      H1             17.7988157341       22.2780760324       15.3699980610  TIP3      3592            0.0000000000
     28126      3728  TIP3      H2             18.8333140229       21.9566742588       14.3479691888  TIP3      3592            0.0000000000
     28127      3729  TIP3      OH2            12.8581770841       24.7759718491       14.5884440798  TIP3      3593            0.0000000000
     28128      3729  TIP3      H1             12.9823934721       23.8349979570       14.8006621038  TIP3      3593            0.0000000000
     28129      3729  TIP3      H2             12.2907817596       24.7185354041       13.7902476162  TIP3      3593            0.0000000000
     28130      3730  TIP3      OH2             5.1949562063       23.0359333531       11.1876603538  TIP3      3594            0.0000000000
     28131      3730  TIP3      H1              5.8615701509       23.6207014852       10.7734515257  TIP3      3594            0.0000000000
     28132      3730  TIP3      H2              5.3421925733       22.2341285425       10.6312737042  TIP3      3594            0.0000000000
     28133      3731  TIP3      OH2            13.2547349883       23.1109218734       10.6177385219  TIP3      3595            0.0000000000
     28134      3731  TIP3      H1             13.8585310601       22.4498782362       11.0090124371  TIP3      3595            0.0000000000
     28135      3731  TIP3      H2             13.8633158780       23.5869391878       10.0360586216  TIP3      3595            0.0000000000
     28136      3732  TIP3      OH2             2.0787015716       25.1694681914       11.9684752471  TIP3      3596            0.0000000000
     28137      3732  TIP3      H1              2.7404603344       24.6517249902       12.4616096882  TIP3      3596            0.0000000000
     28138      3732  TIP3      H2              2.3289129153       24.8892846346       11.0613053441  TIP3      3596            0.0000000000
     28139      3733  TIP3      OH2             7.3034066346       27.0344779918       11.5487752858  TIP3      3597            0.0000000000
     28140      3733  TIP3      H1              8.0739194532       26.5177059218       11.8728590108  TIP3      3597            0.0000000000
     28141      3733  TIP3      H2              6.9454495206       26.3491753596       10.9311129442  TIP3      3597            0.0000000000
     28142      3734  TIP3      OH2            18.1035656144       23.0569823959       16.9408742674  TIP3      3598            0.0000000000
     28143      3734  TIP3      H1             17.8443016234       23.9067665202       16.5142436625  TIP3      3598            0.0000000000
     28144      3734  TIP3      H2             18.2407164874       23.3474388525       17.8591614221  TIP3      3598            0.0000000000
     28145      3735  TIP3      OH2             4.3796208392       21.6662478438       15.5094061656  TIP3      3599            0.0000000000
     28146      3735  TIP3      H1              4.1799344433       22.1973785945       14.7236840513  TIP3      3599            0.0000000000
     28147      3735  TIP3      H2              3.6861293577       21.9874602335       16.1246013431  TIP3      3599            0.0000000000
     28148      3736  TIP3      OH2            11.5782850695       31.1005957205        9.0964616016  TIP3      3600            0.0000000000
     28149      3736  TIP3      H1             11.3350884194       31.1548753816        8.1598270920  TIP3      3600            0.0000000000
     28150      3736  TIP3      H2             12.1545918160       31.8859504148        9.1987035049  TIP3      3600            0.0000000000
     28151      3737  TIP3      OH2             6.7867909220       29.2631902906       15.2413447250  TIP3      3601            0.0000000000
     28152      3737  TIP3      H1              6.2276577193       29.9375747750       15.6858665619  TIP3      3601            0.0000000000
     28153      3737  TIP3      H2              7.5733659272       29.8135314670       15.0177922406  TIP3      3601            0.0000000000
     28154      3738  TIP3      OH2            15.6115523887       22.0233826079       11.5299843185  TIP3      3602            0.0000000000
     28155      3738  TIP3      H1             15.3560661397       21.8684127151       12.4571478605  TIP3      3602            0.0000000000
     28156      3738  TIP3      H2             16.5094873927       22.3720063001       11.6637767320  TIP3      3602            0.0000000000
     28157      3739  TIP3      OH2             4.0520122807       23.8554326799       13.4589840745  TIP3      3603            0.0000000000
     28158      3739  TIP3      H1              4.6778405236       24.3928727904       13.9954563746  TIP3      3603            0.0000000000
     28159      3739  TIP3      H2              4.6047307367       23.6436888154       12.6614110996  TIP3      3603            0.0000000000
     28160      3740  TIP3      OH2             5.6766827642       31.5997601641       16.2251440175  TIP3      3604            0.0000000000
     28161      3740  TIP3      H1              5.5682488987       32.4529866618       15.7892007886  TIP3      3604            0.0000000000
     28162      3740  TIP3      H2              4.8235356946       31.5192426305       16.7025595895  TIP3      3604            0.0000000000
     28163      3741  TIP3      OH2             1.6669833533       30.8235571997        7.5689646571  TIP3      3605            0.0000000000
     28164      3741  TIP3      H1              0.8740661000       30.7365770951        6.9878823915  TIP3      3605            0.0000000000
     28165      3741  TIP3      H2              1.3004197825       31.4137652230        8.2363345483  TIP3      3605            0.0000000000
     28166      3742  TIP3      OH2            15.1164744465       32.7228995891       13.9174359653  TIP3      3606            0.0000000000
     28167      3742  TIP3      H1             14.2201459319       32.9188387762       14.2801819198  TIP3      3606            0.0000000000
     28168      3742  TIP3      H2             15.2498636808       33.5412517309       13.4084299607  TIP3      3606            0.0000000000
     28169      3743  TIP3      OH2            15.5560091942       20.4062503301       15.4529032261  TIP3      3607            0.0000000000
     28170      3743  TIP3      H1             14.8730712218       20.7293318159       14.8211781529  TIP3      3607            0.0000000000
     28171      3743  TIP3      H2             16.3685716978       20.7139028388       14.9937141165  TIP3      3607            0.0000000000
     28172      3744  TIP3      OH2             8.2294138964       19.4335144627       13.0060311254  TIP3      3608            0.0000000000
     28173      3744  TIP3      H1              7.8907603918       18.5559077910       12.7674430727  TIP3      3608            0.0000000000
     28174      3744  TIP3      H2              7.3876837311       19.9164479689       13.2181833459  TIP3      3608            0.0000000000
     28175      3745  TIP3      OH2            13.8825609695       34.5132162906       10.6948670079  TIP3      3609            0.0000000000
     28176      3745  TIP3      H1             13.9889110612       33.7428086875       10.0973636603  TIP3      3609            0.0000000000
     28177      3745  TIP3      H2             14.6868158896       35.0696562994       10.5340138659  TIP3      3609            0.0000000000
     28178      3746  TIP3      OH2            14.1479443497       32.3303915198        9.2260238699  TIP3      3610            0.0000000000
     28179      3746  TIP3      H1             14.4681661147       31.6808240222        8.5710853099  TIP3      3610            0.0000000000
     28180      3746  TIP3      H2             14.4521704739       31.9156222740       10.0526186229  TIP3      3610            0.0000000000
     28181      3747  TIP3      OH2            16.2962474429       31.1934956991       17.8047826474  TIP3      3611            0.0000000000
     28182      3747  TIP3      H1             16.2542846129       30.4904602075       17.1075422603  TIP3      3611            0.0000000000
     28183      3747  TIP3      H2             16.3498542136       31.9798527197       17.2180954733  TIP3      3611            0.0000000000
     28184      3748  TIP3      OH2            10.7090538638       27.7621884692        7.4093938750  TIP3      3612            0.0000000000
     28185      3748  TIP3      H1             10.1836240337       28.5722269631        7.5942399213  TIP3      3612            0.0000000000
     28186      3748  TIP3      H2             11.5733723371       28.1354125089        7.1275167566  TIP3      3612            0.0000000000
     28187      3749  TIP3      OH2            10.7263224671       27.1794125553        4.6349599823  TIP3      3613            0.0000000000
     28188      3749  TIP3      H1             10.9656402785       27.4357714116        5.5438893239  TIP3      3613            0.0000000000
     28189      3749  TIP3      H2             10.9932572181       26.2502858491        4.6115268605  TIP3      3613            0.0000000000
     28190      3750  TIP3      OH2            17.7578336747       27.6155460705       15.6146287436  TIP3      3614            0.0000000000
     28191      3750  TIP3      H1             16.9894478193       28.2347739375       15.6644842981  TIP3      3614            0.0000000000
     28192      3750  TIP3      H2             18.3156506974       28.0888361749       14.9683936615  TIP3      3614            0.0000000000
     28193      3751  TIP3      OH2            14.8976234232       28.2365237330        8.9326412745  TIP3      3615            0.0000000000
     28194      3751  TIP3      H1             14.1343151453       28.5017120584        9.5101284204  TIP3      3615            0.0000000000
     28195      3751  TIP3      H2             15.3987341249       27.7164685101        9.5769398415  TIP3      3615            0.0000000000
     28196      3752  TIP3      OH2            14.3306295204       26.1274789548       17.9381866156  TIP3      3616            0.0000000000
     28197      3752  TIP3      H1             14.5302691584       26.8769513755       18.5330154020  TIP3      3616            0.0000000000
     28198      3752  TIP3      H2             13.8100944575       26.5734072079       17.2472690735  TIP3      3616            0.0000000000
     28199      3753  TIP3      OH2             5.7516833277       28.8582164906       10.6157173625  TIP3      3617            0.0000000000
     28200      3753  TIP3      H1              5.4904313969       28.3679743446        9.8049401718  TIP3      3617            0.0000000000
     28201      3753  TIP3      H2              6.4137254305       28.2228344190       10.9830707324  TIP3      3617            0.0000000000
     28202      3754  TIP3      OH2             7.0546257191       32.0504492159       12.9210559252  TIP3      3618            0.0000000000
     28203      3754  TIP3      H1              7.0993352474       32.2612918769       11.9626865027  TIP3      3618            0.0000000000
     28204      3754  TIP3      H2              7.9295933121       31.6935090382       13.1387393225  TIP3      3618            0.0000000000
     28205      3755  TIP3      OH2             6.2599253959       27.0569313650       13.9176893426  TIP3      3619            0.0000000000
     28206      3755  TIP3      H1              6.6317941991       27.2355605080       13.0237452724  TIP3      3619            0.0000000000
     28207      3755  TIP3      H2              6.4460620872       27.8830880897       14.4171754019  TIP3      3619            0.0000000000
     28208      3756  TIP3      OH2            12.6382567419       33.2008037757       14.7921183489  TIP3      3620            0.0000000000
     28209      3756  TIP3      H1             12.3435722298       33.7725530428       15.5201315218  TIP3      3620            0.0000000000
     28210      3756  TIP3      H2             12.4490565531       32.2932828754       15.1345645810  TIP3      3620            0.0000000000
     28211      3757  TIP3      OH2             7.0873539736       31.5013707033       18.5025421334  TIP3      3621            0.0000000000
     28212      3757  TIP3      H1              6.4609964111       32.1401033526       18.9049358510  TIP3      3621            0.0000000000
     28213      3757  TIP3      H2              6.6847556459       31.3898592648       17.6072969678  TIP3      3621            0.0000000000
     28214      3758  TIP3      OH2            13.3087812295       27.7889291342        6.8653660053  TIP3      3622            0.0000000000
     28215      3758  TIP3      H1             13.9385425753       28.0037643272        7.5928127677  TIP3      3622            0.0000000000
     28216      3758  TIP3      H2             13.7833058095       28.1252600420        6.0694408804  TIP3      3622            0.0000000000
     28217      3759  TIP3      OH2             4.3052759000       28.2942870747       17.4876540195  TIP3      3623            0.0000000000
     28218      3759  TIP3      H1              4.5081294685       28.7022548234       18.3397371182  TIP3      3623            0.0000000000
     28219      3759  TIP3      H2              3.4226160280       27.8946316330       17.6616751284  TIP3      3623            0.0000000000
     28220      3760  TIP3      OH2            10.3531135466       34.3658866453        8.8699252759  TIP3      3624            0.0000000000
     28221      3760  TIP3      H1             10.4962770456       34.4444359248        9.8263160917  TIP3      3624            0.0000000000
     28222      3760  TIP3      H2             10.1903098920       35.2982465654        8.6074949620  TIP3      3624            0.0000000000
     28223      3761  TIP3      OH2             5.6880226450       33.6492572522       19.7188731732  TIP3      3625            0.0000000000
     28224      3761  TIP3      H1              5.7611162902       34.2409113610       18.9381212103  TIP3      3625            0.0000000000
     28225      3761  TIP3      H2              4.7169619472       33.5749425537       19.7938817066  TIP3      3625            0.0000000000
     28226      3762  TIP3      OH2            17.0401782188       18.9196192949        6.5979207891  TIP3      3626            0.0000000000
     28227      3762  TIP3      H1             16.0546002415       18.9817719213        6.6314455099  TIP3      3626            0.0000000000
     28228      3762  TIP3      H2             17.2563506613       19.7080118708        6.0594547258  TIP3      3626            0.0000000000
     28229      3763  TIP3      OH2             4.3360792463       27.9924952894        8.4660751476  TIP3      3627            0.0000000000
     28230      3763  TIP3      H1              4.1716125898       28.5973725941        7.7125554083  TIP3      3627            0.0000000000
     28231      3763  TIP3      H2              4.1629265221       27.1344028717        8.0546860522  TIP3      3627            0.0000000000
     28232      3764  TIP3      OH2            18.0037380616       33.5363927435        4.7900627221  TIP3      3628            0.0000000000
     28233      3764  TIP3      H1             18.2457027912       34.4906535245        4.8549722286  TIP3      3628            0.0000000000
     28234      3764  TIP3      H2             18.8557937955       33.1587562732        4.5476993434  TIP3      3628            0.0000000000
     28235      3765  TIP3      OH2             1.3302270252       30.0932566884       17.5713137732  TIP3      3629            0.0000000000
     28236      3765  TIP3      H1              0.8029453562       30.0261563792       16.7585386975  TIP3      3629            0.0000000000
     28237      3765  TIP3      H2              1.5385818686       29.1472423161       17.7153905390  TIP3      3629            0.0000000000
     28238      3766  TIP3      OH2             0.7337412140       33.8602061774       13.7695209690  TIP3      3630            0.0000000000
     28239      3766  TIP3      H1              1.3756064346       33.9214407784       14.5130504686  TIP3      3630            0.0000000000
     28240      3766  TIP3      H2             -0.1058256102       33.8947412510       14.2449770170  TIP3      3630            0.0000000000
     28241      3767  TIP3      OH2            18.8819731845       33.3947471440       19.4704606317  TIP3      3631            0.0000000000
     28242      3767  TIP3      H1             18.8052171604       32.4352426949       19.3238902895  TIP3      3631            0.0000000000
     28243      3767  TIP3      H2             17.9549520185       33.5930960645       19.7415249748  TIP3      3631            0.0000000000
     28244      3768  TIP3      OH2             9.2300054021       33.2845194617       18.3421712417  TIP3      3632            0.0000000000
     28245      3768  TIP3      H1              9.2918366252       34.1856120720       18.7281233037  TIP3      3632            0.0000000000
     28246      3768  TIP3      H2              8.3307762388       32.9999756515       18.5868480176  TIP3      3632            0.0000000000
     28247      3769  TIP3      OH2            10.3330218056       36.7942588637        7.6729640284  TIP3      3633            0.0000000000
     28248      3769  TIP3      H1             10.2256292661       36.9584049135        6.7109788952  TIP3      3633            0.0000000000
     28249      3769  TIP3      H2             10.3628144250       37.6924730782        8.0686273053  TIP3      3633            0.0000000000
     28250      3770  TIP3      OH2             4.4545355611       35.6381194415        9.8168422585  TIP3      3634            0.0000000000
     28251      3770  TIP3      H1              4.6074819492       35.5106252413       10.7887086705  TIP3      3634            0.0000000000
     28252      3770  TIP3      H2              3.7928342862       34.9346680547        9.6688264522  TIP3      3634            0.0000000000
     28253      3771  TIP3      OH2            13.1330705002       36.1300225180        4.5083677826  TIP3      3635            0.0000000000
     28254      3771  TIP3      H1             13.7716172482       35.4211109626        4.2852314581  TIP3      3635            0.0000000000
     28255      3771  TIP3      H2             13.4808204108       36.3992001451        5.3780734845  TIP3      3635            0.0000000000
     28256      3772  TIP3      OH2            12.9254684625       36.1605712912        7.5881076952  TIP3      3636            0.0000000000
     28257      3772  TIP3      H1             11.9606193640       36.2234885854        7.7563310686  TIP3      3636            0.0000000000
     28258      3772  TIP3      H2             13.1926360725       35.4254523163        8.1540487568  TIP3      3636            0.0000000000
     28259      3773  TIP3      OH2            15.5120284673       24.4944390158       19.9612041288  TIP3      3637            0.0000000000
     28260      3773  TIP3      H1             15.0603831172       24.9060600212       19.2010049386  TIP3      3637            0.0000000000
     28261      3773  TIP3      H2             15.5459357648       23.5437007009       19.6851604358  TIP3      3637            0.0000000000
     28262      3774  TIP3      OH2             3.6093690650       31.6769479843       18.0190089887  TIP3      3638            0.0000000000
     28263      3774  TIP3      H1              3.9347272677       31.2583496347       18.8515997796  TIP3      3638            0.0000000000
     28264      3774  TIP3      H2              2.7924071678       31.1460867582       17.8652146497  TIP3      3638            0.0000000000
     28265      3775  TIP3      OH2             5.8963367355       20.4731755859       13.5673873608  TIP3      3639            0.0000000000
     28266      3775  TIP3      H1              4.9823825886       20.3279505465       13.2448083343  TIP3      3639            0.0000000000
     28267      3775  TIP3      H2              5.7190238422       20.6099288327       14.5217903811  TIP3      3639            0.0000000000
     28268      3776  TIP3      OH2            10.5977715557       19.7689508052       17.0248086683  TIP3      3640            0.0000000000
     28269      3776  TIP3      H1             10.9526823883       19.2995053272       17.8107943071  TIP3      3640            0.0000000000
     28270      3776  TIP3      H2              9.6208820184       19.7202841705       17.1474916995  TIP3      3640            0.0000000000
     28271      3777  TIP3      OH2            13.1603073191       23.5180364957       17.9275311812  TIP3      3641            0.0000000000
     28272      3777  TIP3      H1             12.5522751472       23.3997371223       18.7023025058  TIP3      3641            0.0000000000
     28273      3777  TIP3      H2             13.2184159088       24.4917726412       17.8732271950  TIP3      3641            0.0000000000
     28274      3778  TIP3      OH2            14.5759821028       28.6256279543        4.5253207967  TIP3      3642            0.0000000000
     28275      3778  TIP3      H1             14.3837254756       28.7509815339        3.5851943737  TIP3      3642            0.0000000000
     28276      3778  TIP3      H2             15.4214909740       29.1031347454        4.6173418174  TIP3      3642            0.0000000000
     28277      3779  TIP3      OH2            10.3592848652       22.5319182735        4.5687419247  TIP3      3643            0.0000000000
     28278      3779  TIP3      H1              9.8142543205       22.4195169131        5.3721988621  TIP3      3643            0.0000000000
     28279      3779  TIP3      H2             10.1745173979       21.6967770720        4.1225636976  TIP3      3643            0.0000000000
     28280      3780  TIP3      OH2             5.9671958337       24.7847413351       15.0977608789  TIP3      3644            0.0000000000
     28281      3780  TIP3      H1              5.5568730652       25.0570984599       15.9469483121  TIP3      3644            0.0000000000
     28282      3780  TIP3      H2              5.9405262752       25.6581939630       14.6214703975  TIP3      3644            0.0000000000
     28283      3781  TIP3      OH2             6.0750249694       25.3263155995        9.8731545214  TIP3      3645            0.0000000000
     28284      3781  TIP3      H1              5.1086888166       25.4212868923        9.8428871139  TIP3      3645            0.0000000000
     28285      3781  TIP3      H2              6.2540438527       25.1131445992        8.9405218663  TIP3      3645            0.0000000000
     28286      3782  TIP3      OH2            11.6314889262       25.7453914193        8.8879661254  TIP3      3646            0.0000000000
     28287      3782  TIP3      H1             11.2669803751       26.4970033355        8.3597811056  TIP3      3646            0.0000000000
     28288      3782  TIP3      H2             12.3172313752       25.4292872985        8.2807806391  TIP3      3646            0.0000000000
     28289      3783  TIP3      OH2             9.8592535313       26.2330969853       19.6244049172  TIP3      3647            0.0000000000
     28290      3783  TIP3      H1              9.6662883147       25.4059242877       20.1216498241  TIP3      3647            0.0000000000
     28291      3783  TIP3      H2             10.5801819923       26.5688344187       20.1740088165  TIP3      3647            0.0000000000
     28292      3784  TIP3      OH2            11.7793395126       25.1440748515       12.0319224401  TIP3      3648            0.0000000000
     28293      3784  TIP3      H1             12.1592464443       25.8931757046       11.5421742030  TIP3      3648            0.0000000000
     28294      3784  TIP3      H2             12.1123889733       24.4153609157       11.4674457017  TIP3      3648            0.0000000000
     28295      3785  TIP3      OH2             3.1912119659       25.0959727238       16.2282651248  TIP3      3649            0.0000000000
     28296      3785  TIP3      H1              3.2010152742       25.3790051185       17.1517411861  TIP3      3649            0.0000000000
     28297      3785  TIP3      H2              2.9491831394       24.1541027933       16.3392032575  TIP3      3649            0.0000000000
     28298      3786  TIP3      OH2             7.2521144991       22.6950295335        3.5576547870  TIP3      3650            0.0000000000
     28299      3786  TIP3      H1              6.9606163333       22.1947729453        4.3348554588  TIP3      3650            0.0000000000
     28300      3786  TIP3      H2              6.8461089230       23.5612492379        3.7225090093  TIP3      3650            0.0000000000
     28301      3787  TIP3      OH2             1.1618726008       21.8684243924       10.1998046409  TIP3      3651            0.0000000000
     28302      3787  TIP3      H1              1.5054264349       21.5980467716       11.0679642210  TIP3      3651            0.0000000000
     28303      3787  TIP3      H2              0.2379704985       22.1144107794       10.4625569566  TIP3      3651            0.0000000000
     28304      3788  TIP3      OH2             2.1007832206       22.9810517046        6.0384269762  TIP3      3652            0.0000000000
     28305      3788  TIP3      H1              2.4346338193       22.6621993598        5.1786545381  TIP3      3652            0.0000000000
     28306      3788  TIP3      H2              1.2813231290       23.4494061613        5.8232045979  TIP3      3652            0.0000000000
     28307      3789  TIP3      OH2            11.8755454247       27.0459653188       16.0401614016  TIP3      3653            0.0000000000
     28308      3789  TIP3      H1             12.3942844428       26.2993221224       15.6750938108  TIP3      3653            0.0000000000
     28309      3789  TIP3      H2             11.3162080468       26.5719389172       16.6891116810  TIP3      3653            0.0000000000
     28310      3790  TIP3      OH2             8.8619865428       22.3468786951       10.8285327466  TIP3      3654            0.0000000000
     28311      3790  TIP3      H1              8.0942493285       22.4775935475       11.4037789417  TIP3      3654            0.0000000000
     28312      3790  TIP3      H2              9.5184177484       21.9503086673       11.4457343488  TIP3      3654            0.0000000000
     28313      3791  TIP3      OH2             3.4015827673       24.5709705339        9.7185740038  TIP3      3655            0.0000000000
     28314      3791  TIP3      H1              3.3923954848       24.3030471784        8.7903813486  TIP3      3655            0.0000000000
     28315      3791  TIP3      H2              3.8971457676       23.8402244411       10.1499028420  TIP3      3655            0.0000000000
     28316      3792  TIP3      OH2             6.0088237064       24.0337568472        7.4090063812  TIP3      3656            0.0000000000
     28317      3792  TIP3      H1              6.9651291054       24.0722938046        7.5890755257  TIP3      3656            0.0000000000
     28318      3792  TIP3      H2              5.9513741727       24.5617983604        6.5769218107  TIP3      3656            0.0000000000
     28319      3793  TIP3      OH2            13.4918854707       21.6078406857       14.0814960166  TIP3      3657            0.0000000000
     28320      3793  TIP3      H1             12.7471414667       21.6919009074       14.7060909707  TIP3      3657            0.0000000000
     28321      3793  TIP3      H2             13.0509847457       21.2407395322       13.2959318702  TIP3      3657            0.0000000000
     28322      3794  TIP3      OH2             5.9397476650       25.2257385706        5.0767342462  TIP3      3658            0.0000000000
     28323      3794  TIP3      H1              5.2043151923       25.1420979757        4.4404566707  TIP3      3658            0.0000000000
     28324      3794  TIP3      H2              6.6532896914       25.6810325872        4.5739847170  TIP3      3658            0.0000000000
     28325      3795  TIP3      OH2            15.6619423512       37.3799173780       20.7421543697  TIP3      3659            0.0000000000
     28326      3795  TIP3      H1             16.0844719025       37.7514404867       19.9455171444  TIP3      3659            0.0000000000
     28327      3795  TIP3      H2             16.3495041423       37.4947092993       21.4066919506  TIP3      3659            0.0000000000
     28328      3796  TIP3      OH2             3.7037726238       30.2056624458       20.3015566990  TIP3      3660            0.0000000000
     28329      3796  TIP3      H1              4.3998532625       30.1299890125       20.9959481111  TIP3      3660            0.0000000000
     28330      3796  TIP3      H2              2.9216228262       29.9280936190       20.8207389810  TIP3      3660            0.0000000000
     28331      3797  TIP3      OH2             9.1485627690       25.3641117546       12.3448224909  TIP3      3661            0.0000000000
     28332      3797  TIP3      H1             10.0987798285       25.2026569577       12.1293734850  TIP3      3661            0.0000000000
     28333      3797  TIP3      H2              9.0151500402       24.7681305091       13.0934914038  TIP3      3661            0.0000000000
     28334      3798  TIP3      OH2             5.3506422539       21.1126477311        9.4054783001  TIP3      3662            0.0000000000
     28335      3798  TIP3      H1              4.6743599110       20.4571629682        9.6974182974  TIP3      3662            0.0000000000
     28336      3798  TIP3      H2              5.5101830705       20.8176410410        8.4981582998  TIP3      3662            0.0000000000
     28337      3799  TIP3      OH2             8.1300610740       23.3544106809       15.1485313897  TIP3      3663            0.0000000000
     28338      3799  TIP3      H1              7.3488571543       23.9452426018       15.0851123760  TIP3      3663            0.0000000000
     28339      3799  TIP3      H2              8.7970167994       23.9556701869       15.4968759201  TIP3      3663            0.0000000000
     28340      3800  TIP3      OH2             8.9911009243       29.8915417703        7.2940403867  TIP3      3664            0.0000000000
     28341      3800  TIP3      H1              8.3228905440       29.2893256389        6.8953038233  TIP3      3664            0.0000000000
     28342      3800  TIP3      H2              8.5283263697       30.1367482905        8.1272653288  TIP3      3664            0.0000000000
     28343      3801  TIP3      OH2            16.0855678867       29.7242660071       15.6348043429  TIP3      3665            0.0000000000
     28344      3801  TIP3      H1             16.4476264714       30.1344354493       14.8158311896  TIP3      3665            0.0000000000
     28345      3801  TIP3      H2             15.2022592326       29.4461462892       15.3273580346  TIP3      3665            0.0000000000
     28346      3802  TIP3      OH2            12.7611840540       22.8509020099        5.9296392040  TIP3      3666            0.0000000000
     28347      3802  TIP3      H1             11.9976716245       22.8590660506        5.3165178780  TIP3      3666            0.0000000000
     28348      3802  TIP3      H2             13.0358959024       23.7979629396        5.9521445286  TIP3      3666            0.0000000000
     28349      3803  TIP3      OH2            10.1365300605       30.4165961449       17.8444908263  TIP3      3667            0.0000000000
     28350      3803  TIP3      H1              9.7674339730       29.8099119624       18.4957386349  TIP3      3667            0.0000000000
     28351      3803  TIP3      H2              9.9163776395       31.2735791986       18.2389228831  TIP3      3667            0.0000000000
     28352      3804  TIP3      OH2            13.6392398928       25.1720898231        6.6823049421  TIP3      3668            0.0000000000
     28353      3804  TIP3      H1             14.2668582567       24.7257371765        7.2905861111  TIP3      3668            0.0000000000
     28354      3804  TIP3      H2             13.8015674286       26.1070658879        6.9006950338  TIP3      3668            0.0000000000
     28355      3805  TIP3      OH2             4.4933128348       29.3806125664       13.1052031941  TIP3      3669            0.0000000000
     28356      3805  TIP3      H1              5.3297796229       29.0745619501       12.7158255981  TIP3      3669            0.0000000000
     28357      3805  TIP3      H2              4.3206756313       28.6219004974       13.7138587283  TIP3      3669            0.0000000000
     28358      3806  TIP3      OH2            10.8137609106       31.3510322050        6.0696560357  TIP3      3670            0.0000000000
     28359      3806  TIP3      H1             10.2072228397       32.1085859209        6.0788252103  TIP3      3670            0.0000000000
     28360      3806  TIP3      H2             10.2383502133       30.6614951659        6.4795585982  TIP3      3670            0.0000000000
     28361      3807  TIP3      OH2             1.7289716366       27.3991951965       17.8757322904  TIP3      3671            0.0000000000
     28362      3807  TIP3      H1              1.4411810209       27.2427972210       18.7995590459  TIP3      3671            0.0000000000
     28363      3807  TIP3      H2              0.8396073760       27.3113362812       17.4559790003  TIP3      3671            0.0000000000
     28364      3808  TIP3      OH2             7.4728595335       27.3715698574       19.6095933146  TIP3      3672            0.0000000000
     28365      3808  TIP3      H1              7.3552153572       27.2426217174       18.6545560629  TIP3      3672            0.0000000000
     28366      3808  TIP3      H2              8.3807262367       27.0039076621       19.7068494582  TIP3      3672            0.0000000000
     28367      3809  TIP3      OH2            13.0108694145       32.4600560477       18.3627916143  TIP3      3673            0.0000000000
     28368      3809  TIP3      H1             12.2483866054       32.3769066117       17.7771827511  TIP3      3673            0.0000000000
     28369      3809  TIP3      H2             12.6398814682       33.0318316920       19.0549826911  TIP3      3673            0.0000000000
     28370      3810  TIP3      OH2            18.4397066825       24.6362026092        6.6507029945  TIP3      3674            0.0000000000
     28371      3810  TIP3      H1             17.8389532525       24.6615690953        5.8742055325  TIP3      3674            0.0000000000
     28372      3810  TIP3      H2             18.9121217106       25.4688696440        6.4991592867  TIP3      3674            0.0000000000
     28373      3811  TIP3      OH2            18.6996740342       30.6636014192       18.9973905217  TIP3      3675            0.0000000000
     28374      3811  TIP3      H1             17.8126782428       30.8331318561       18.5961073995  TIP3      3675            0.0000000000
     28375      3811  TIP3      H2             19.2381967942       30.5793838693       18.1753509005  TIP3      3675            0.0000000000
     28376      3812  TIP3      OH2            16.2079203501       33.7792992616        7.0409284656  TIP3      3676            0.0000000000
     28377      3812  TIP3      H1             15.4984254427       33.1255933511        6.9901708049  TIP3      3676            0.0000000000
     28378      3812  TIP3      H2             16.7941822894       33.5286076012        6.2982314952  TIP3      3676            0.0000000000
     28379      3813  TIP3      OH2            14.0398650130       28.4744472690       13.8968835508  TIP3      3677            0.0000000000
     28380      3813  TIP3      H1             13.0965040959       28.3111503974       13.7411936568  TIP3      3677            0.0000000000
     28381      3813  TIP3      H2             14.4138150693       27.7161065347       13.4179076483  TIP3      3677            0.0000000000
     28382      3814  TIP3      OH2             6.5264925232       32.9268704355       10.2433055428  TIP3      3678            0.0000000000
     28383      3814  TIP3      H1              6.8551842859       33.7500698889        9.8178756771  TIP3      3678            0.0000000000
     28384      3814  TIP3      H2              5.5923100100       32.9672836401        9.9862856998  TIP3      3678            0.0000000000
     28385      3815  TIP3      OH2             1.7666003270       27.5659989555        5.0545537045  TIP3      3679            0.0000000000
     28386      3815  TIP3      H1              2.7192617540       27.7330880185        4.9734274888  TIP3      3679            0.0000000000
     28387      3815  TIP3      H2              1.5041546692       28.4509978837        5.3312085155  TIP3      3679            0.0000000000
     28388      3816  TIP3      OH2             7.4918807056       30.5099540224        9.4145996105  TIP3      3680            0.0000000000
     28389      3816  TIP3      H1              7.3569545304       31.4385849704        9.7146369309  TIP3      3680            0.0000000000
     28390      3816  TIP3      H2              6.8679485716       30.0158630198        9.9869058110  TIP3      3680            0.0000000000
     28391      3817  TIP3      OH2             8.3760645811       34.8576040487       16.3332688409  TIP3      3681            0.0000000000
     28392      3817  TIP3      H1              9.1497848288       35.3831333342       16.0602619969  TIP3      3681            0.0000000000
     28393      3817  TIP3      H2              8.7981786210       34.2177321418       16.9510472521  TIP3      3681            0.0000000000
     28394      3818  TIP3      OH2             6.8436195993       35.3352327470        8.6207326249  TIP3      3682            0.0000000000
     28395      3818  TIP3      H1              5.9335806311       35.4810087278        8.9667278110  TIP3      3682            0.0000000000
     28396      3818  TIP3      H2              7.3090035820       36.0151014423        9.1637920937  TIP3      3682            0.0000000000
     28397      3819  TIP3      OH2            11.8642745201       30.6621454242       15.6937597785  TIP3      3683            0.0000000000
     28398      3819  TIP3      H1             11.3264266021       30.3592381576       16.4688960658  TIP3      3683            0.0000000000
     28399      3819  TIP3      H2             12.4406925508       29.8945304754       15.5359799886  TIP3      3683            0.0000000000
     28400      3820  TIP3      OH2            14.1739583198       32.0548329581        5.2273362030  TIP3      3684            0.0000000000
     28401      3820  TIP3      H1             14.1849863160       31.4853580570        6.0286665923  TIP3      3684            0.0000000000
     28402      3820  TIP3      H2             13.3938686781       31.7018717880        4.7826515398  TIP3      3684            0.0000000000
     28403      3821  TIP3      OH2            14.7582153621       35.1191048738       18.2181304343  TIP3      3685            0.0000000000
     28404      3821  TIP3      H1             13.8675584259       34.7383110070       18.0826188664  TIP3      3685            0.0000000000
     28405      3821  TIP3      H2             14.7895889587       35.8402346489       17.5453497771  TIP3      3685            0.0000000000
     28406      3822  TIP3      OH2            18.6935710832       36.1335915823        5.1876836243  TIP3      3686            0.0000000000
     28407      3822  TIP3      H1             19.2859289995       36.6699095711        4.6276816430  TIP3      3686            0.0000000000
     28408      3822  TIP3      H2             18.1559705381       36.8121677606        5.6542713691  TIP3      3686            0.0000000000
     28409      3823  TIP3      OH2             2.6042813117       22.5642960916       17.3492120754  TIP3      3687            0.0000000000
     28410      3823  TIP3      H1              2.1354484572       23.1549225890       17.9923817281  TIP3      3687            0.0000000000
     28411      3823  TIP3      H2              2.2248707289       21.7146132786       17.6370041338  TIP3      3687            0.0000000000
     28412      3824  TIP3      OH2            14.9214824005       30.5070517440        7.3461265899  TIP3      3688            0.0000000000
     28413      3824  TIP3      H1             14.8378357626       29.6640932731        7.8415556931  TIP3      3688            0.0000000000
     28414      3824  TIP3      H2             15.8802128268       30.4785272499        7.1576954800  TIP3      3688            0.0000000000
     28415      3825  TIP3      OH2             2.3769470025       34.1836987950       16.0119837389  TIP3      3689            0.0000000000
     28416      3825  TIP3      H1              2.9604490839       33.4291090835       16.1695094908  TIP3      3689            0.0000000000
     28417      3825  TIP3      H2              2.8470368060       34.8820248031       16.4966406072  TIP3      3689            0.0000000000
     28418      3826  TIP3      OH2             7.4262025260       31.9671780477        6.1151533919  TIP3      3690            0.0000000000
     28419      3826  TIP3      H1              7.7234003923       31.1402346469        6.5252383760  TIP3      3690            0.0000000000
     28420      3826  TIP3      H2              6.9400416117       32.4272952532        6.8157665158  TIP3      3690            0.0000000000
     28421      3827  TIP3      OH2             3.6832390648       29.4573863784        6.2477029590  TIP3      3691            0.0000000000
     28422      3827  TIP3      H1              2.9143535019       29.9632782391        6.5936970639  TIP3      3691            0.0000000000
     28423      3827  TIP3      H2              4.2268396012       30.1395264276        5.8165882718  TIP3      3691            0.0000000000
     28424      3828  TIP3      OH2            11.3843769075       22.3735828975       16.2709367597  TIP3      3692            0.0000000000
     28425      3828  TIP3      H1             12.0210498158       22.6970336820       16.9405093691  TIP3      3692            0.0000000000
     28426      3828  TIP3      H2             11.0967228506       21.5347387757       16.6797090867  TIP3      3692            0.0000000000
     28427      3829  TIP3      OH2            11.9500049169       21.9579064376        8.2892863468  TIP3      3693            0.0000000000
     28428      3829  TIP3      H1             12.3186564158       22.2285581293        7.4151258465  TIP3      3693            0.0000000000
     28429      3829  TIP3      H2             12.3819611485       22.5789103648        8.8929407079  TIP3      3693            0.0000000000
     28430      3830  TIP3      OH2            10.3121582397       34.1447845797        5.9111941221  TIP3      3694            0.0000000000
     28431      3830  TIP3      H1             10.0853457213       34.3321374465        6.8458287255  TIP3      3694            0.0000000000
     28432      3830  TIP3      H2             11.2671568621       34.0142244213        5.9649132394  TIP3      3694            0.0000000000
     28433      3831  TIP3      OH2             8.8784042798       24.0808686502        8.7618735936  TIP3      3695            0.0000000000
     28434      3831  TIP3      H1              9.7093623778       24.5662203653        8.9095298310  TIP3      3695            0.0000000000
     28435      3831  TIP3      H2              8.8828313573       23.4348029068        9.5037583070  TIP3      3695            0.0000000000
     28436      3832  TIP3      OH2            10.5207576943       25.0539305013       17.3484643928  TIP3      3696            0.0000000000
     28437      3832  TIP3      H1             10.2740902855       25.2886039209       18.2727736134  TIP3      3696            0.0000000000
     28438      3832  TIP3      H2             10.6476955478       24.0943166200       17.3733830649  TIP3      3696            0.0000000000
     28439      3833  TIP3      OH2             9.7256867095       20.5046647382        8.9434804758  TIP3      3697            0.0000000000
     28440      3833  TIP3      H1              9.2398742095       21.1170788669        9.5371949113  TIP3      3697            0.0000000000
     28441      3833  TIP3      H2             10.5978162863       20.9785967325        8.8715939833  TIP3      3697            0.0000000000
     28442      3834  TIP3      OH2             7.0091780305       35.1461695659        5.9370384366  TIP3      3698            0.0000000000
     28443      3834  TIP3      H1              7.9717039472       35.1828984742        5.8282766745  TIP3      3698            0.0000000000
     28444      3834  TIP3      H2              6.9251659134       35.2798217012        6.9103216890  TIP3      3698            0.0000000000
     28445      3835  TIP3      OH2             5.6657429088       21.4523869187        6.2572462647  TIP3      3699            0.0000000000
     28446      3835  TIP3      H1              5.5828910536       22.2930972816        6.7442984793  TIP3      3699            0.0000000000
     28447      3835  TIP3      H2              6.6300775417       21.3295318680        6.3191361025  TIP3      3699            0.0000000000
     28448      3836  TIP3      OH2            15.8159732677       22.4159791371       18.3496953273  TIP3      3700            0.0000000000
     28449      3836  TIP3      H1             14.9100453497       22.4273409425       17.9915558025  TIP3      3700            0.0000000000
     28450      3836  TIP3      H2             16.3781207502       22.4830394583       17.5615641064  TIP3      3700            0.0000000000
     28451      3837  TIP3      OH2            14.6276595087       25.7836194445       12.5683223546  TIP3      3701            0.0000000000
     28452      3837  TIP3      H1             14.0419748717       25.3909783366       13.2417616008  TIP3      3701            0.0000000000
     28453      3837  TIP3      H2             15.5047857969       25.4873566620       12.9080140641  TIP3      3701            0.0000000000
     28454      3838  TIP3      OH2             4.2449168085       32.8162291793        4.9270281506  TIP3      3702            0.0000000000
     28455      3838  TIP3      H1              3.7674822920       33.0635549778        5.7267113924  TIP3      3702            0.0000000000
     28456      3838  TIP3      H2              3.5782493727       32.2059603846        4.5429659554  TIP3      3702            0.0000000000
     28457      3839  TIP3      OH2             3.4793890637       24.8797794626        3.7761600448  TIP3      3703            0.0000000000
     28458      3839  TIP3      H1              2.8580813948       25.4655927043        4.2385973594  TIP3      3703            0.0000000000
     28459      3839  TIP3      H2              3.6662625596       25.3130322466        2.9344745392  TIP3      3703            0.0000000000
     28460      3840  TIP3      OH2            15.6833089183       35.6584318275       14.0464701767  TIP3      3704            0.0000000000
     28461      3840  TIP3      H1             15.5814674494       36.4450652733       13.4696839805  TIP3      3704            0.0000000000
     28462      3840  TIP3      H2             16.6616211203       35.6935024176       14.1464640453  TIP3      3704            0.0000000000
     28463      3841  TIP3      OH2             3.4208419227       19.6880715353       12.7652337332  TIP3      3705            0.0000000000
     28464      3841  TIP3      H1              3.4513130810       19.5462002128       11.7894400060  TIP3      3705            0.0000000000
     28465      3841  TIP3      H2              3.1084899934       18.8055445464       13.0687088258  TIP3      3705            0.0000000000
     28466      3842  TIP3      OH2             2.4436868805       33.7472623124        9.5374308493  TIP3      3706            0.0000000000
     28467      3842  TIP3      H1              1.7715864788       34.3380752122        9.9429303717  TIP3      3706            0.0000000000
     28468      3842  TIP3      H2              2.2845878148       33.8649113948        8.5937339627  TIP3      3706            0.0000000000
     28469      3843  TIP3      OH2             1.1668427161       35.9314224025       19.5561910960  TIP3      3707            0.0000000000
     28470      3843  TIP3      H1              2.0270336149       36.1636795660       19.9186120503  TIP3      3707            0.0000000000
     28471      3843  TIP3      H2              0.9819184700       35.0855427190       19.9895675893  TIP3      3707            0.0000000000
     28472      3844  TIP3      OH2             6.5801111307       35.1786241895       22.0306371528  TIP3      3708            0.0000000000
     28473      3844  TIP3      H1              7.5339142365       35.1801827421       21.8512065469  TIP3      3708            0.0000000000
     28474      3844  TIP3      H2              6.2746888324       34.5336906516       21.3655663370  TIP3      3708            0.0000000000
     28475      3845  TIP3      OH2            12.3167899817       33.8652766287       20.7465066559  TIP3      3709            0.0000000000
     28476      3845  TIP3      H1             12.1327913726       32.9567298721       21.0894398856  TIP3      3709            0.0000000000
     28477      3845  TIP3      H2             13.2713947077       33.9447050387       20.9800646387  TIP3      3709            0.0000000000
     28478      3846  TIP3      OH2            15.4483797855       34.3911874381        3.7619254850  TIP3      3710            0.0000000000
     28479      3846  TIP3      H1             15.0626290713       33.6408150133        4.2524398251  TIP3      3710            0.0000000000
     28480      3846  TIP3      H2             16.3969288964       34.2089230216        3.9095796301  TIP3      3710            0.0000000000
     28481      3847  TIP3      OH2             1.4128854343       29.9325774162       21.8270537618  TIP3      3711            0.0000000000
     28482      3847  TIP3      H1              1.0593169783       29.1231237194       21.4249724484  TIP3      3711            0.0000000000
     28483      3847  TIP3      H2              0.7159017257       30.5462496473       21.5688286197  TIP3      3711            0.0000000000
     28484      3848  TIP3      OH2             6.0953810778       30.6684038443        3.4344788852  TIP3      3712            0.0000000000
     28485      3848  TIP3      H1              6.5168539451       30.2206686696        4.1847756511  TIP3      3712            0.0000000000
     28486      3848  TIP3      H2              6.5437043050       30.2574159015        2.6731119028  TIP3      3712            0.0000000000
     28487      3849  TIP3      OH2             8.1831214208       29.8349647519       20.3584521828  TIP3      3713            0.0000000000
     28488      3849  TIP3      H1              7.8464729834       30.4321161186       19.6502213567  TIP3      3713            0.0000000000
     28489      3849  TIP3      H2              7.9261012385       28.9356182631       20.0477378851  TIP3      3713            0.0000000000
     28490      3850  TIP3      OH2            13.9881825941       29.7705834424       18.2478326522  TIP3      3714            0.0000000000
     28491      3850  TIP3      H1             14.8327550212       30.2658015449       18.3214409620  TIP3      3714            0.0000000000
     28492      3850  TIP3      H2             13.3626100602       30.5266534916       18.2624673557  TIP3      3714            0.0000000000
     28493      3851  TIP3      OH2             1.8771490343       27.3994301697       20.6486118728  TIP3      3715            0.0000000000
     28494      3851  TIP3      H1              2.7472801821       27.3247318263       20.2314082907  TIP3      3715            0.0000000000
     28495      3851  TIP3      H2              2.1531537069       27.3693198737       21.5738233569  TIP3      3715            0.0000000000
     28496      3852  TIP3      OH2             7.0523547449       28.4939489975        5.9105203188  TIP3      3716            0.0000000000
     28497      3852  TIP3      H1              6.3550541476       27.9446774326        6.3041142080  TIP3      3716            0.0000000000
     28498      3852  TIP3      H2              7.4031270845       27.8792287610        5.2415129075  TIP3      3716            0.0000000000
     28499      3853  TIP3      OH2             5.9174441415       26.1829780032       17.3248090238  TIP3      3717            0.0000000000
     28500      3853  TIP3      H1              5.4235771513       27.0304682058       17.3561338148  TIP3      3717            0.0000000000
     28501      3853  TIP3      H2              6.7591844591       26.4848474567       16.9225452671  TIP3      3717            0.0000000000
     28502      3854  TIP3      OH2             8.1083663244       26.3990271488        4.0758678747  TIP3      3718            0.0000000000
     28503      3854  TIP3      H1              8.3243314812       26.2469794347        3.1437917938  TIP3      3718            0.0000000000
     28504      3854  TIP3      H2              8.9655331348       26.7206148925        4.4438854965  TIP3      3718            0.0000000000
     28505      3855  TIP3      OH2            11.7005083109       28.9879805729       21.7217312245  TIP3      3719            0.0000000000
     28506      3855  TIP3      H1             12.5282735747       28.5943607980       21.4143153214  TIP3      3719            0.0000000000
     28507      3855  TIP3      H2             11.1981282736       28.2138919208       22.0568966528  TIP3      3719            0.0000000000
     28508      3856  TIP3      OH2            17.0237292635       29.3076126333        3.1248977634  TIP3      3720            0.0000000000
     28509      3856  TIP3      H1             16.4788886248       29.3006135637        2.3250690468  TIP3      3720            0.0000000000
     28510      3856  TIP3      H2             17.4237874495       30.1867622648        3.0328663012  TIP3      3720            0.0000000000
     28511      3857  TIP3      OH2             6.7754880288       24.0406007599       18.7065654806  TIP3      3721            0.0000000000
     28512      3857  TIP3      H1              6.6406526461       23.2562961170       18.1226281904  TIP3      3721            0.0000000000
     28513      3857  TIP3      H2              6.4066880874       24.7821532995       18.1767165881  TIP3      3721            0.0000000000
     28514      3858  TIP3      OH2             6.6688170275       21.9289279151       16.8974589541  TIP3      3722            0.0000000000
     28515      3858  TIP3      H1              7.1775516339       22.3275419326       16.1455950588  TIP3      3722            0.0000000000
     28516      3858  TIP3      H2              5.7629296184       21.8703342507       16.5179679810  TIP3      3722            0.0000000000
     28517      3859  TIP3      OH2             8.4156309412       27.5480228942       16.9128740462  TIP3      3723            0.0000000000
     28518      3859  TIP3      H1              9.3057099331       27.3887346751       16.5719332251  TIP3      3723            0.0000000000
     28519      3859  TIP3      H2              8.1083259243       28.2927410760       16.3581345583  TIP3      3723            0.0000000000
     28520      3860  TIP3      OH2            12.9826422446       25.4612898830       22.4371509918  TIP3      3724            0.0000000000
     28521      3860  TIP3      H1             12.8641767678       24.5595866692       22.8021509241  TIP3      3724            0.0000000000
     28522      3860  TIP3      H2             13.8518469594       25.3778125045       22.0152603496  TIP3      3724            0.0000000000
     28523      3861  TIP3      OH2            14.5112712288       28.2895458854       20.4920540580  TIP3      3725            0.0000000000
     28524      3861  TIP3      H1             14.2020683639       28.7849529267       19.6977888433  TIP3      3725            0.0000000000
     28525      3861  TIP3      H2             15.4621258935       28.1892351617       20.2844384580  TIP3      3725            0.0000000000
     28526      3862  TIP3      OH2             5.5186763385       24.0350863318       21.0338014084  TIP3      3726            0.0000000000
     28527      3862  TIP3      H1              4.5700848057       24.0815615223       20.8274581866  TIP3      3726            0.0000000000
     28528      3862  TIP3      H2              5.9378212048       24.0839361722       20.1472206801  TIP3      3726            0.0000000000
     28529      3863  TIP3      OH2             7.8815447230       19.4643411071       16.7691789391  TIP3      3727            0.0000000000
     28530      3863  TIP3      H1              7.4536280066       20.3494419452       16.8470241782  TIP3      3727            0.0000000000
     28531      3863  TIP3      H2              7.1205949063       18.9359623735       16.4884859227  TIP3      3727            0.0000000000
     28532      3864  TIP3      OH2             8.6832083964       23.8625141656       20.6359105380  TIP3      3728            0.0000000000
     28533      3864  TIP3      H1              8.1186821560       23.7219071029       21.4046689376  TIP3      3728            0.0000000000
     28534      3864  TIP3      H2              8.0493161099       23.7079844628       19.9037711638  TIP3      3728            0.0000000000
     28535      3865  TIP3      OH2            11.3541335817       23.2217755915       19.9019240313  TIP3      3729            0.0000000000
     28536      3865  TIP3      H1             10.4228885004       23.1155232350       20.1701430219  TIP3      3729            0.0000000000
     28537      3865  TIP3      H2             11.7890198198       22.5747945722       20.5152819047  TIP3      3729            0.0000000000
     28538      3866  TIP3      OH2            12.7597597599       21.3421501269       21.4959028789  TIP3      3730            0.0000000000
     28539      3866  TIP3      H1             13.2056999410       20.4815178451       21.4970105573  TIP3      3730            0.0000000000
     28540      3866  TIP3      H2             12.9557541577       21.6095209866       22.4203636581  TIP3      3730            0.0000000000
     28541      3867  TIP3      OH2             2.9356642633       22.5941700769       21.2594963592  TIP3      3731            0.0000000000
     28542      3867  TIP3      H1              3.1801935046       21.9308690379       20.6008409528  TIP3      3731            0.0000000000
     28543      3867  TIP3      H2              2.5393026264       22.0414541228       21.9408544986  TIP3      3731            0.0000000000
     28544      3868  TIP3      OH2             7.7896835425       18.7223852846       19.3911369177  TIP3      3732            0.0000000000
     28545      3868  TIP3      H1              8.2286096564       17.8543578067       19.4449420717  TIP3      3732            0.0000000000
     28546      3868  TIP3      H2              7.8635149289       18.9384618337       18.4343074067  TIP3      3732            0.0000000000
     28547      3869  TIP3      OH2             7.6548640163       19.7205027163       22.2528686846  TIP3      3733            0.0000000000
     28548      3869  TIP3      H1              7.8366796576       19.4812312695       21.3256690727  TIP3      3733            0.0000000000
     28549      3869  TIP3      H2              7.4545074694       20.6661170228       22.1976429770  TIP3      3733            0.0000000000
     28550      3870  TIP3      OH2             7.6719097072       37.7607854229        4.6343615090  TIP3      3734            0.0000000000
     28551      3870  TIP3      H1              8.5611586623       37.5105728966        4.9543939983  TIP3      3734            0.0000000000
     28552      3870  TIP3      H2              7.8986812457       37.9781622542        3.7018763323  TIP3      3734            0.0000000000
     28553      3871  TIP3      OH2             1.7005382400       31.9916899813        4.6027331162  TIP3      3735            0.0000000000
     28554      3871  TIP3      H1              1.3490564393       32.8903226727        4.5914712850  TIP3      3735            0.0000000000
     28555      3871  TIP3      H2              1.0511437415       31.5004990663        4.0737215804  TIP3      3735            0.0000000000
     28556      3872  TIP3      OH2            66.4819922836       36.4334788096        8.3377771951  TIP3      3736            0.0000000000
     28557      3872  TIP3      H1             65.5162210166       36.5554117175        8.3881010567  TIP3      3736            0.0000000000
     28558      3872  TIP3      H2             66.7141844649       36.5489146008        9.2734573473  TIP3      3736            0.0000000000
     28559      3873  TIP3      OH2             1.2488634835       35.5043513759       11.3115495636  TIP3      3737            0.0000000000
     28560      3873  TIP3      H1              0.6300319892       35.0531612798       11.9101162419  TIP3      3737            0.0000000000
     28561      3873  TIP3      H2              1.8584157657       35.8816961949       11.9826289635  TIP3      3737            0.0000000000
     28562      3874  TIP3      OH2            18.3446624124       36.3308760655       14.2672413366  TIP3      3738            0.0000000000
     28563      3874  TIP3      H1             18.7181209543       36.6275782780       15.1191390570  TIP3      3738            0.0000000000
     28564      3874  TIP3      H2             19.1324730613       36.0404863850       13.7899624441  TIP3      3738            0.0000000000
     28565      3875  TIP3      OH2            18.3937694286       35.3229269147       17.1580977446  TIP3      3739            0.0000000000
     28566      3875  TIP3      H1             17.9004583014       34.6318067969       16.6532636526  TIP3      3739            0.0000000000
     28567      3875  TIP3      H2             18.7163234372       34.8155811414       17.9209429853  TIP3      3739            0.0000000000
     28568      3876  TIP3      OH2            17.7586242586       29.8313486637        7.0027105223  TIP3      3740            0.0000000000
     28569      3876  TIP3      H1             18.5852625268       30.2103567453        7.3834509868  TIP3      3740            0.0000000000
     28570      3876  TIP3      H2             17.5861753587       29.1321589922        7.6662808657  TIP3      3740            0.0000000000
     28571      3877  TIP3      OH2            18.2663237533       27.8092753384        9.1856386690  TIP3      3741            0.0000000000
     28572      3877  TIP3      H1             17.6135554183       27.1069878673        9.4150369943  TIP3      3741            0.0000000000
     28573      3877  TIP3      H2             18.8224389054       27.8049871994        9.9919735547  TIP3      3741            0.0000000000
     28574      3878  TIP3      OH2            17.8319852409       30.4023935329       13.6846800145  TIP3      3742            0.0000000000
     28575      3878  TIP3      H1             18.5656079509       29.7484715845       13.6689292135  TIP3      3742            0.0000000000
     28576      3878  TIP3      H2             18.3407211683       31.2233650401       13.5607903716  TIP3      3742            0.0000000000
     28577      3879  TIP3      OH2            16.6901007485       33.3954687034       16.1931948443  TIP3      3743            0.0000000000
     28578      3879  TIP3      H1             16.0424100129       34.0541428683       16.4902099122  TIP3      3743            0.0000000000
     28579      3879  TIP3      H2             16.2926123578       33.0750551097       15.3549258637  TIP3      3743            0.0000000000
     28580      3880  TIP3      OH2            18.6599323805       28.0710088198        5.1368692078  TIP3      3744            0.0000000000
     28581      3880  TIP3      H1             17.9539087065       28.3833700581        4.5367502742  TIP3      3744            0.0000000000
     28582      3880  TIP3      H2             18.5462799742       28.7397817114        5.8445166713  TIP3      3744            0.0000000000
     28583      3881  TIP3      OH2            17.6985446165       24.9389399945        3.9308599409  TIP3      3745            0.0000000000
     28584      3881  TIP3      H1             18.1011043568       25.5290471924        3.2684885063  TIP3      3745            0.0000000000
     28585      3881  TIP3      H2             16.8521795603       24.7612385615        3.5043135220  TIP3      3745            0.0000000000
     28586      3882  TIP3      OH2            16.6115815961       25.7664385615       10.0133857771  TIP3      3746            0.0000000000
     28587      3882  TIP3      H1             16.1216082779       25.1423146883        9.4452567372  TIP3      3746            0.0000000000
     28588      3882  TIP3      H2             16.2645561018       25.5780986400       10.9035136648  TIP3      3746            0.0000000000
     28589      3883  TIP3      OH2             1.0548479681       27.8795098491       14.1389670094  TIP3      3747            0.0000000000
     28590      3883  TIP3      H1              1.0047247789       28.0469139189       13.1752441851  TIP3      3747            0.0000000000
     28591      3883  TIP3      H2              2.0253294363       27.7778664564       14.2569884124  TIP3      3747            0.0000000000
     28592      3884  TIP3      OH2            17.2154649954       28.3766363517       19.4399653650  TIP3      3748            0.0000000000
     28593      3884  TIP3      H1             17.6974618912       27.5630860809       19.7088413611  TIP3      3748            0.0000000000
     28594      3884  TIP3      H2             17.9242485510       29.0413500744       19.3484439497  TIP3      3748            0.0000000000
     28595      3885  TIP3      OH2            18.0942611354       25.8484754163       19.7768262641  TIP3      3749            0.0000000000
     28596      3885  TIP3      H1             17.3504328003       25.5594842796       20.3403407728  TIP3      3749            0.0000000000
     28597      3885  TIP3      H2             18.7109343393       25.0915587088       19.8957298509  TIP3      3749            0.0000000000
     28598      3886  TIP3      OH2            15.5033857133       23.9879225816        8.2173601251  TIP3      3750            0.0000000000
     28599      3886  TIP3      H1             15.4764760390       23.0090959566        8.3471895364  TIP3      3750            0.0000000000
     28600      3886  TIP3      H2             16.3274026414       24.0394567520        7.7110688233  TIP3      3750            0.0000000000
     28601      3887  TIP3      OH2            16.8066633461       24.6776190427       13.5753975014  TIP3      3751            0.0000000000
     28602      3887  TIP3      H1             17.7951781360       24.7199006522       13.5824898299  TIP3      3751            0.0000000000
     28603      3887  TIP3      H2             16.6658894312       24.7846646631       14.5381613241  TIP3      3751            0.0000000000
     28604      3888  TIP3      OH2            16.6611454888       25.2270312883       16.3610587871  TIP3      3752            0.0000000000
     28605      3888  TIP3      H1             15.8785875677       25.4092738731       16.9155552299  TIP3      3752            0.0000000000
     28606      3888  TIP3      H2             17.0765234740       26.1187531489       16.2988489869  TIP3      3752            0.0000000000
     28607      3889  TIP3      OH2             1.6477477211       24.1324239075       19.3346629765  TIP3      3753            0.0000000000
     28608      3889  TIP3      H1              2.1524354210       23.6381611718       20.0112323200  TIP3      3753            0.0000000000
     28609      3889  TIP3      H2              0.7551970778       24.0952704602       19.7530420388  TIP3      3753            0.0000000000
     28610      3890  TIP3      OH2            18.6607654778       18.4948426649       21.7979973635  TIP3      3754            0.0000000000
     28611      3890  TIP3      H1             18.9787907007       17.8564838338       21.1413509989  TIP3      3754            0.0000000000
     28612      3890  TIP3      H2             18.8804998456       19.3486102154       21.4068100698  TIP3      3754            0.0000000000
     28613      3891  TIP3      OH2            15.6668750050       21.3094582344        8.7088594792  TIP3      3755            0.0000000000
     28614      3891  TIP3      H1             15.9175350233       21.2776023871        9.6561193060  TIP3      3755            0.0000000000
     28615      3891  TIP3      H2             16.0082968753       20.4734246732        8.3651652986  TIP3      3755            0.0000000000
     28616      3892  TIP3      OH2             2.0977791215       22.0584630839       13.1257715256  TIP3      3756            0.0000000000
     28617      3892  TIP3      H1              2.4910290210       21.1521931390       13.0875026104  TIP3      3756            0.0000000000
     28618      3892  TIP3      H2              2.8750397515       22.6251044515       13.2975666163  TIP3      3756            0.0000000000
     28619      3893  TIP3      OH2             0.6593807918       25.0384582738       14.6695015887  TIP3      3757            0.0000000000
     28620      3893  TIP3      H1              1.3679799927       24.5746323979       14.1923431410  TIP3      3757            0.0000000000
     28621      3893  TIP3      H2              1.0114961330       25.9512203542       14.6838268539  TIP3      3757            0.0000000000
     28622      3894  TIP3      OH2            18.2855058031       21.2526665915       20.5513805986  TIP3      3758            0.0000000000
     28623      3894  TIP3      H1             17.6134382993       21.4130810763       21.2400211614  TIP3      3758            0.0000000000
     28624      3894  TIP3      H2             17.7334040385       21.1334116227       19.7629282258  TIP3      3758            0.0000000000
     28625      3895  TIP3      OH2            18.1618942831       21.5216182309        4.8461896430  TIP3      3759            0.0000000000
     28626      3895  TIP3      H1             17.6909576549       21.4409768544        4.0049458229  TIP3      3759            0.0000000000
     28627      3895  TIP3      H2             18.8414933828       22.1660269170        4.5991035774  TIP3      3759            0.0000000000
     28628      3896  TIP3      OH2             0.6948345526       21.2398507226        7.6497618821  TIP3      3760            0.0000000000
     28629      3896  TIP3      H1              0.9575169134       21.2945816559        8.5997794785  TIP3      3760            0.0000000000
     28630      3896  TIP3      H2              1.4331396427       21.7081457867        7.2097549258  TIP3      3760            0.0000000000
     28631      3897  TIP3      OH2            15.6778040501       36.3048407519       10.3544208422  TIP3      3761            0.0000000000
     28632      3897  TIP3      H1             16.4929511676       36.2461592532        9.8164716023  TIP3      3761            0.0000000000
     28633      3897  TIP3      H2             15.8552289384       37.0008919483       11.0062684583  TIP3      3761            0.0000000000
     28634      3898  TIP3      OH2             0.4907769937       19.7548794679       16.0153559553  TIP3      3762            0.0000000000
     28635      3898  TIP3      H1             -0.3941142471       19.5839819066       16.3923985125  TIP3      3762            0.0000000000
     28636      3898  TIP3      H2              0.2985211664       20.4092485872       15.3255997017  TIP3      3762            0.0000000000
     28637      3899  TIP3      OH2             3.0255486856       32.9291453291       20.6081900787  TIP3      3763            0.0000000000
     28638      3899  TIP3      H1              2.4686356808       32.7314162683       19.8417212427  TIP3      3763            0.0000000000
     28639      3899  TIP3      H2              3.3691600106       32.0361273391       20.7981910771  TIP3      3763            0.0000000000
     28640      3900  TIP3      OH2             5.8592989381       34.8683694760       17.1683195393  TIP3      3764            0.0000000000
     28641      3900  TIP3      H1              5.6937188678       35.7029941305       16.6795294777  TIP3      3764            0.0000000000
     28642      3900  TIP3      H2              6.8044624884       34.7538830574       16.9161954437  TIP3      3764            0.0000000000
     28643      3901  TIP3      OH2             9.5485151264       35.6116329768       19.5031432193  TIP3      3765            0.0000000000
     28644      3901  TIP3      H1              9.7615092681       35.4878724137       20.4520177807  TIP3      3765            0.0000000000
     28645      3901  TIP3      H2             10.4064247713       35.9612465807       19.2009519349  TIP3      3765            0.0000000000
     28646      3902  TIP3      OH2            11.4298461533       37.4675501796       18.8331454829  TIP3      3766            0.0000000000
     28647      3902  TIP3      H1             12.1486894078       37.0522377197       18.3391455195  TIP3      3766            0.0000000000
     28648      3902  TIP3      H2             11.8965272506       37.6506248365       19.6807374193  TIP3      3766            0.0000000000
     28649      3903  TIP3      OH2            17.4186449779       19.3090709226       18.3070074739  TIP3      3767            0.0000000000
     28650      3903  TIP3      H1             16.6900459953       19.7037961849       17.8133274975  TIP3      3767            0.0000000000
     28651      3903  TIP3      H2             17.5294294045       18.4444432449       17.8504932292  TIP3      3767            0.0000000000
     28652      3904  TIP3      OH2             2.9241482171       37.4951993208       16.7171940818  TIP3      3768            0.0000000000
     28653      3904  TIP3      H1              2.1574094475       37.9960822870       16.3598723857  TIP3      3768            0.0000000000
     28654      3904  TIP3      H2              2.8962345716       37.7764193309       17.6395588603  TIP3      3768            0.0000000000
     28655      3905  TIP3      OH2             5.5426380289       37.1814786737       15.6558216032  TIP3      3769            0.0000000000
     28656      3905  TIP3      H1              4.5790939044       37.2580450392       15.8343719274  TIP3      3769            0.0000000000
     28657      3905  TIP3      H2              5.6490463000       37.8440647558       14.9369047526  TIP3      3769            0.0000000000
     28658      3906  TIP3      OH2            10.2961795977       36.6317446677       15.0121283137  TIP3      3770            0.0000000000
     28659      3906  TIP3      H1              9.6675926311       36.9691160532       14.3556345972  TIP3      3770            0.0000000000
     28660      3906  TIP3      H2             10.4775585514       37.4692468134       15.4897618730  TIP3      3770            0.0000000000
     28661      3907  TIP3      OH2            12.2942157924       35.4191891890       16.4549608257  TIP3      3771            0.0000000000
     28662      3907  TIP3      H1             11.6686456060       35.7814446171       15.7928549091  TIP3      3771            0.0000000000
     28663      3907  TIP3      H2             13.1026411943       35.9181069865       16.2247403373  TIP3      3771            0.0000000000
     28664      3908  TIP3      OH2            14.6539169209       36.7410447327       16.2124873075  TIP3      3772            0.0000000000
     28665      3908  TIP3      H1             14.9623498267       37.6696216409       16.0650309303  TIP3      3772            0.0000000000
     28666      3908  TIP3      H2             15.0456003004       36.3003642542       15.4203529296  TIP3      3772            0.0000000000
     28667      3909  TIP3      OH2             2.7541231436       36.1698525399       13.6623356588  TIP3      3773            0.0000000000
     28668      3909  TIP3      H1              2.2633454300       35.5706845793       14.2463788848  TIP3      3773            0.0000000000
     28669      3909  TIP3      H2              3.5486948012       35.6467258612       13.4277432367  TIP3      3773            0.0000000000
     28670      3910  TIP3      OH2             4.7741458795       34.9438540715       12.3937143603  TIP3      3774            0.0000000000
     28671      3910  TIP3      H1              4.5941811458       34.0047279310       12.5970123248  TIP3      3774            0.0000000000
     28672      3910  TIP3      H2              5.5621839879       35.0672659052       12.9777453805  TIP3      3774            0.0000000000
     28673      3911  TIP3      OH2             6.9173894803       34.8029108681       13.9545021530  TIP3      3775            0.0000000000
     28674      3911  TIP3      H1              7.3873750172       33.9755847766       13.7459768558  TIP3      3775            0.0000000000
     28675      3911  TIP3      H2              7.2634770352       35.0103507237       14.8457306858  TIP3      3775            0.0000000000
     28676      3912  TIP3      OH2            10.5171711127       20.8227825539       12.4432497793  TIP3      3776            0.0000000000
     28677      3912  TIP3      H1              9.7129513397       20.4142154165       12.8370819567  TIP3      3776            0.0000000000
     28678      3912  TIP3      H2             11.0723480697       20.0497823490       12.2862534923  TIP3      3776            0.0000000000
     28679      3913  TIP3      OH2            16.2280389011       18.9415474462       12.3453039184  TIP3      3777            0.0000000000
     28680      3913  TIP3      H1             16.8525817299       19.5064783270       11.8307459566  TIP3      3777            0.0000000000
     28681      3913  TIP3      H2             15.3695280081       19.3201689862       12.0644054230  TIP3      3777            0.0000000000
     28682      3914  TIP3      OH2            17.8864229555       19.9782859031       10.3976668084  TIP3      3778            0.0000000000
     28683      3914  TIP3      H1             18.5710581453       19.4230744719        9.9650371050  TIP3      3778            0.0000000000
     28684      3914  TIP3      H2             18.3507212101       20.8472521855       10.5020727150  TIP3      3778            0.0000000000
     28685      3915  TIP3      OH2             3.6358707075       19.1738099852       10.1037397656  TIP3      3779            0.0000000000
     28686      3915  TIP3      H1              2.7512315344       19.0477197448        9.7252538498  TIP3      3779            0.0000000000
     28687      3915  TIP3      H2              4.0023186800       18.2516800702       10.0934447500  TIP3      3779            0.0000000000
     28688      3916  TIP3      OH2             1.3522206994       19.1412305955        5.6846014333  TIP3      3780            0.0000000000
     28689      3916  TIP3      H1              1.6677354694       19.8447787369        5.0917257139  TIP3      3780            0.0000000000
     28690      3916  TIP3      H2              1.0129415806       19.6316376665        6.4601403566  TIP3      3780            0.0000000000
     28691      3917  TIP3      OH2             7.9505732502       18.4852412121       10.4306889841  TIP3      3781            0.0000000000
     28692      3917  TIP3      H1              8.7676801181       18.7010787134        9.9495925949  TIP3      3781            0.0000000000
     28693      3917  TIP3      H2              7.8639797714       19.2471469465       11.0234558736  TIP3      3781            0.0000000000
     28694      3918  TIP3      OH2            13.5815015608       19.4223278390       11.5338350743  TIP3      3782            0.0000000000
     28695      3918  TIP3      H1             13.3708443796       19.7255879737       10.6401949803  TIP3      3782            0.0000000000
     28696      3918  TIP3      H2             13.0246928034       18.6154985374       11.6273738894  TIP3      3782            0.0000000000
     28697      3919  TIP3      OH2            14.4302319279       19.0384323763        6.5739919874  TIP3      3783            0.0000000000
     28698      3919  TIP3      H1             13.8602127391       19.8182002776        6.6706319403  TIP3      3783            0.0000000000
     28699      3919  TIP3      H2             14.0918643203       18.4802764937        7.3251403429  TIP3      3783            0.0000000000
     28700      3920  TIP3      OH2             2.4681558933       35.3303681190        6.4352795875  TIP3      3784            0.0000000000
     28701      3920  TIP3      H1              1.5749283026       35.2083322842        6.7887954827  TIP3      3784            0.0000000000
     28702      3920  TIP3      H2              2.4024980916       36.2959188775        6.2518656127  TIP3      3784            0.0000000000
     28703      3921  TIP3      OH2             3.3354986565       20.8517061889        4.5424652827  TIP3      3785            0.0000000000
     28704      3921  TIP3      H1              4.0295376981       20.3077642622        4.1298354689  TIP3      3785            0.0000000000
     28705      3921  TIP3      H2              3.8078983314       21.1583142584        5.3434973183  TIP3      3785            0.0000000000
     28706      3922  TIP3      OH2             8.7958918820       21.8930135567        6.7950610897  TIP3      3786            0.0000000000
     28707      3922  TIP3      H1              9.0131005642       21.1890407638        7.4426309957  TIP3      3786            0.0000000000
     28708      3922  TIP3      H2              9.0161178211       22.6772837606        7.3414450124  TIP3      3786            0.0000000000
     28709      3923  TIP3      OH2            10.2748328191       36.6860323362        4.8675180103  TIP3      3787            0.0000000000
     28710      3923  TIP3      H1             11.1558250721       36.9142644356        4.5198989982  TIP3      3787            0.0000000000
     28711      3923  TIP3      H2             10.4014289012       35.7243487983        4.9642460698  TIP3      3787            0.0000000000
     28712      3924  TIP3      OH2            17.4200344144       35.6670344524        8.3693717741  TIP3      3788            0.0000000000
     28713      3924  TIP3      H1             17.0632601647       34.9047654152        7.8471386641  TIP3      3788            0.0000000000
     28714      3924  TIP3      H2             17.2439055461       36.3692609899        7.7041765743  TIP3      3788            0.0000000000
     28715      3925  TIP3      OH2             2.4394357689       19.9697562726       19.2448167156  TIP3      3789            0.0000000000
     28716      3925  TIP3      H1              1.6829451208       19.4066547006       19.4868533116  TIP3      3789            0.0000000000
     28717      3925  TIP3      H2              3.1354474682       19.7292290130       19.8810133828  TIP3      3789            0.0000000000
     28718      3926  TIP3      OH2             4.9720977873       19.1438715638       21.6676364180  TIP3      3790            0.0000000000
     28719      3926  TIP3      H1              5.6701401379       19.3936295311       21.0526004505  TIP3      3790            0.0000000000
     28720      3926  TIP3      H2              5.3799045244       18.3065130861       21.9678049231  TIP3      3790            0.0000000000
     28721      3927  TIP3      OH2             3.8247097012       36.2044856309        3.8642887463  TIP3      3791            0.0000000000
     28722      3927  TIP3      H1              2.9807495060       36.6914910357        3.7367443024  TIP3      3791            0.0000000000
     28723      3927  TIP3      H2              3.5719915090       35.4741384334        4.4546462302  TIP3      3791            0.0000000000
     28724      3928  TIP3      OH2            13.1768123460       18.2568535605       20.8137598505  TIP3      3792            0.0000000000
     28725      3928  TIP3      H1             13.0547192126       18.0397929971       21.7610073082  TIP3      3792            0.0000000000
     28726      3928  TIP3      H2             14.1289060118       18.5120976414       20.7780923676  TIP3      3792            0.0000000000
     28727      3929  TIP3      OH2            16.6530874226       34.7133054082       19.9008711614  TIP3      3793            0.0000000000
     28728      3929  TIP3      H1             16.0248856405       34.7387626891       19.1373866777  TIP3      3793            0.0000000000
     28729      3929  TIP3      H2             16.6600599201       35.6606162507       20.1240439720  TIP3      3793            0.0000000000
     28730      3930  TIP3      OH2            31.2907042320       28.8022432415        9.8222372168  TIP3      3794            0.0000000000
     28731      3930  TIP3      H1             30.9518791757       29.7138712156        9.6661951746  TIP3      3794            0.0000000000
     28732      3930  TIP3      H2             30.5945504478       28.2608310537        9.4246098292  TIP3      3794            0.0000000000
     28733      3931  TIP3      OH2            29.9263909688       27.4065855305       13.2031070084  TIP3      3795            0.0000000000
     28734      3931  TIP3      H1             30.0236620342       27.0444029324       14.1103451365  TIP3      3795            0.0000000000
     28735      3931  TIP3      H2             29.1936420196       26.9036541194       12.8189139042  TIP3      3795            0.0000000000
     28736      3932  TIP3      OH2            22.0113052218       27.2654328704       14.9093684683  TIP3      3796            0.0000000000
     28737      3932  TIP3      H1             22.0347666888       26.6203226957       15.6341662082  TIP3      3796            0.0000000000
     28738      3932  TIP3      H2             22.8396212680       27.7525737399       15.0516100003  TIP3      3796            0.0000000000
     28739      3933  TIP3      OH2            33.3982383511       30.8437511676       12.1901174882  TIP3      3797            0.0000000000
     28740      3933  TIP3      H1             33.1194931845       30.1144284145       12.7710322779  TIP3      3797            0.0000000000
     28741      3933  TIP3      H2             33.8407804827       31.4316049941       12.8248945782  TIP3      3797            0.0000000000
     28742      3934  TIP3      OH2            23.1481866903       32.1569386732       13.1491542809  TIP3      3798            0.0000000000
     28743      3934  TIP3      H1             22.8471969075       31.2566752547       12.9157143640  TIP3      3798            0.0000000000
     28744      3934  TIP3      H2             24.1010722534       32.0324780093       12.9658150717  TIP3      3798            0.0000000000
     28745      3935  TIP3      OH2            20.1375296543       25.2969624838        9.0270623921  TIP3      3799            0.0000000000
     28746      3935  TIP3      H1             19.8494506071       26.2123363289        8.8991499455  TIP3      3799            0.0000000000
     28747      3935  TIP3      H2             19.2876916962       24.8310430708        9.0285409905  TIP3      3799            0.0000000000
     28748      3936  TIP3      OH2            20.2221756176       27.5052490460       11.6004596924  TIP3      3800            0.0000000000
     28749      3936  TIP3      H1             20.6564891779       26.6411729394       11.8059384570  TIP3      3800            0.0000000000
     28750      3936  TIP3      H2             20.9815570930       28.0873532042       11.4635277958  TIP3      3800            0.0000000000
     28751      3937  TIP3      OH2            30.8785522936       36.0471181851       11.7471666594  TIP3      3801            0.0000000000
     28752      3937  TIP3      H1             31.4765421015       35.4926576726       11.1922872353  TIP3      3801            0.0000000000
     28753      3937  TIP3      H2             30.5260114248       35.3755454110       12.3435453429  TIP3      3801            0.0000000000
     28754      3938  TIP3      OH2            27.8335767655       30.7950099364       14.5187908744  TIP3      3802            0.0000000000
     28755      3938  TIP3      H1             28.3442758526       30.2650937808       13.8877059740  TIP3      3802            0.0000000000
     28756      3938  TIP3      H2             28.5555323718       31.1218040172       15.0967689951  TIP3      3802            0.0000000000
     28757      3939  TIP3      OH2            36.9897875394       21.8852634938       14.0336371045  TIP3      3803            0.0000000000
     28758      3939  TIP3      H1             37.0752663557       22.0806835282       14.9828833690  TIP3      3803            0.0000000000
     28759      3939  TIP3      H2             37.7688117877       21.3198696950       13.9361799391  TIP3      3803            0.0000000000
     28760      3940  TIP3      OH2            31.8006235225       24.8033790906       14.6594911879  TIP3      3804            0.0000000000
     28761      3940  TIP3      H1             31.6964928488       23.8467575891       14.8020834188  TIP3      3804            0.0000000000
     28762      3940  TIP3      H2             31.8488162646       24.7803404331       13.6765291294  TIP3      3804            0.0000000000
     28763      3941  TIP3      OH2            24.7327128244       22.2761547779       11.4254430409  TIP3      3805            0.0000000000
     28764      3941  TIP3      H1             24.9367511900       23.1001217728       10.9454406348  TIP3      3805            0.0000000000
     28765      3941  TIP3      H2             24.2699206163       21.7709226642       10.7285046986  TIP3      3805            0.0000000000
     28766      3942  TIP3      OH2            32.1758745037       22.9696605657       10.3082194530  TIP3      3806            0.0000000000
     28767      3942  TIP3      H1             32.8546090475       22.4367589777       10.7768076796  TIP3      3806            0.0000000000
     28768      3942  TIP3      H2             32.7154073234       23.4241456464        9.6396663536  TIP3      3806            0.0000000000
     28769      3943  TIP3      OH2            21.2645297627       25.0879817909       12.3082638735  TIP3      3807            0.0000000000
     28770      3943  TIP3      H1             21.8353562345       24.6710879024       12.9865656423  TIP3      3807            0.0000000000
     28771      3943  TIP3      H2             21.6428669965       24.7105562758       11.4864176007  TIP3      3807            0.0000000000
     28772      3944  TIP3      OH2            25.7123305543       26.5829899524       11.6892384542  TIP3      3808            0.0000000000
     28773      3944  TIP3      H1             26.6543562653       26.3225491602       11.7389542711  TIP3      3808            0.0000000000
     28774      3944  TIP3      H2             25.3641461923       25.8320453528       11.1544152611  TIP3      3808            0.0000000000
     28775      3945  TIP3      OH2            36.9885054914       22.9427777324       16.7212890900  TIP3      3809            0.0000000000
     28776      3945  TIP3      H1             36.8743403089       23.6420897112       16.0469053813  TIP3      3809            0.0000000000
     28777      3945  TIP3      H2             37.0492087804       23.5115970897       17.4996555932  TIP3      3809            0.0000000000
     28778      3946  TIP3      OH2            24.0314029515       21.8306240550       15.5994435335  TIP3      3810            0.0000000000
     28779      3946  TIP3      H1             23.4502460327       22.3527560140       15.0032421418  TIP3      3810            0.0000000000
     28780      3946  TIP3      H2             23.4867339344       21.8688125755       16.4173859900  TIP3      3810            0.0000000000
     28781      3947  TIP3      OH2            30.4059414743       31.1690202595        8.8896009271  TIP3      3811            0.0000000000
     28782      3947  TIP3      H1             30.2257851409       31.2293659497        7.9366459535  TIP3      3811            0.0000000000
     28783      3947  TIP3      H2             29.8819000835       31.9363879941        9.2275973880  TIP3      3811            0.0000000000
     28784      3948  TIP3      OH2            25.6811574258       29.3761899645       15.4088562665  TIP3      3812            0.0000000000
     28785      3948  TIP3      H1             25.1414544236       30.0081912848       15.9373064846  TIP3      3812            0.0000000000
     28786      3948  TIP3      H2             26.3952420963       29.9650583223       15.0732957824  TIP3      3812            0.0000000000
     28787      3949  TIP3      OH2            34.4479401552       22.0802886298       11.5068771633  TIP3      3813            0.0000000000
     28788      3949  TIP3      H1             34.0258547110       21.9493430283       12.3712876330  TIP3      3813            0.0000000000
     28789      3949  TIP3      H2             35.3218668765       22.3986423425       11.7870810110  TIP3      3813            0.0000000000
     28790      3950  TIP3      OH2            23.2228580957       23.5816038354       13.5371677871  TIP3      3814            0.0000000000
     28791      3950  TIP3      H1             23.7878686325       24.2915227574       13.9188555909  TIP3      3814            0.0000000000
     28792      3950  TIP3      H2             23.7487011572       23.2851106199       12.7523647829  TIP3      3814            0.0000000000
     28793      3951  TIP3      OH2            24.5348883032       31.5515462961       16.4314909038  TIP3      3815            0.0000000000
     28794      3951  TIP3      H1             24.2922504513       31.9488217876       15.5786163304  TIP3      3815            0.0000000000
     28795      3951  TIP3      H2             23.6472250772       31.5444456661       16.8666556977  TIP3      3815            0.0000000000
     28796      3952  TIP3      OH2            20.1845166739       30.9505420676        7.4337446110  TIP3      3816            0.0000000000
     28797      3952  TIP3      H1             20.1601169523       31.2981780937        6.5186291971  TIP3      3816            0.0000000000
     28798      3952  TIP3      H2             20.4711279993       31.7073562033        7.9716541857  TIP3      3816            0.0000000000
     28799      3953  TIP3      OH2            34.1351400479       32.7649649619       14.1622502466  TIP3      3817            0.0000000000
     28800      3953  TIP3      H1             33.1626923780       32.7810569356       14.3215756549  TIP3      3817            0.0000000000
     28801      3953  TIP3      H2             34.2211408614       33.6669048702       13.7945901720  TIP3      3817            0.0000000000
     28802      3954  TIP3      OH2            34.2111664335       21.4401616223       15.1370534801  TIP3      3818            0.0000000000
     28803      3954  TIP3      H1             33.4901218275       21.6285004871       14.5032441276  TIP3      3818            0.0000000000
     28804      3954  TIP3      H2             34.9976130017       21.7895233306       14.6891914562  TIP3      3818            0.0000000000
     28805      3955  TIP3      OH2            26.8545022146       18.5948745556       13.1651876042  TIP3      3819            0.0000000000
     28806      3955  TIP3      H1             26.4538750909       17.7309237558       13.3762387332  TIP3      3819            0.0000000000
     28807      3955  TIP3      H2             26.0811402573       19.1857224332       13.3392555132  TIP3      3819            0.0000000000
     28808      3956  TIP3      OH2            32.4705739461       34.6027427324       10.2503296540  TIP3      3820            0.0000000000
     28809      3956  TIP3      H1             32.7698431250       33.7396012060        9.8836206707  TIP3      3820            0.0000000000
     28810      3956  TIP3      H2             33.3048737917       35.1266105698       10.1831655972  TIP3      3820            0.0000000000
     28811      3957  TIP3      OH2            33.5037337659       32.3621123600        9.1271433815  TIP3      3821            0.0000000000
     28812      3957  TIP3      H1             33.2570063272       31.7550760221        8.4107033957  TIP3      3821            0.0000000000
     28813      3957  TIP3      H2             33.2888972682       31.8348103063        9.9182121702  TIP3      3821            0.0000000000
     28814      3958  TIP3      OH2            35.2200270031       31.2033253261       17.8541529360  TIP3      3822            0.0000000000
     28815      3958  TIP3      H1             35.2398712153       30.5029790340       17.1647282680  TIP3      3822            0.0000000000
     28816      3958  TIP3      H2             35.4119845778       31.9905866090       17.2895553710  TIP3      3822            0.0000000000
     28817      3959  TIP3      OH2            29.5753862907       27.6363925367        7.2177832532  TIP3      3823            0.0000000000
     28818      3959  TIP3      H1             29.0027968059       28.4401096201        7.2448783190  TIP3      3823            0.0000000000
     28819      3959  TIP3      H2             30.4479612558       27.9953911195        6.9417571625  TIP3      3823            0.0000000000
     28820      3960  TIP3      OH2            29.8014910152       27.0600636506        4.2763614064  TIP3      3824            0.0000000000
     28821      3960  TIP3      H1             30.4209307431       27.4126718077        4.9249269261  TIP3      3824            0.0000000000
     28822      3960  TIP3      H2             29.7639731632       26.1231998554        4.5068200984  TIP3      3824            0.0000000000
     28823      3961  TIP3      OH2            36.9786283809       27.6474692137       15.7090305524  TIP3      3825            0.0000000000
     28824      3961  TIP3      H1             36.2974599318       28.3298444690       15.5651074802  TIP3      3825            0.0000000000
     28825      3961  TIP3      H2             37.6109906345       27.8884493369       14.9968873734  TIP3      3825            0.0000000000
     28826      3962  TIP3      OH2            33.7342010972       28.2215522136        8.6811322641  TIP3      3826            0.0000000000
     28827      3962  TIP3      H1             32.8698215940       28.4693804723        9.0867394871  TIP3      3826            0.0000000000
     28828      3962  TIP3      H2             34.1375925983       27.8134424579        9.4633347171  TIP3      3826            0.0000000000
     28829      3963  TIP3      OH2            32.8723292568       26.2120772848       17.8747406404  TIP3      3827            0.0000000000
     28830      3963  TIP3      H1             32.3229388362       26.9360634250       18.2332205697  TIP3      3827            0.0000000000
     28831      3963  TIP3      H2             32.5206826625       26.1724096371       16.9699889702  TIP3      3827            0.0000000000
     28832      3964  TIP3      OH2            24.4740992032       28.4372125535       10.2688403608  TIP3      3828            0.0000000000
     28833      3964  TIP3      H1             24.4561540288       28.1216999932        9.3490200312  TIP3      3828            0.0000000000
     28834      3964  TIP3      H2             24.9752727410       27.7294495520       10.7325570108  TIP3      3828            0.0000000000
     28835      3965  TIP3      OH2            25.9548740063       31.8001045292       12.8633829447  TIP3      3829            0.0000000000
     28836      3965  TIP3      H1             26.2116482752       31.5487444168       11.9617060982  TIP3      3829            0.0000000000
     28837      3965  TIP3      H2             26.6690576320       31.4248809555       13.4284055021  TIP3      3829            0.0000000000
     28838      3966  TIP3      OH2            24.8168233835       27.3043510870       14.1186626228  TIP3      3830            0.0000000000
     28839      3966  TIP3      H1             25.2218192667       27.2803146958       13.2234459478  TIP3      3830            0.0000000000
     28840      3966  TIP3      H2             25.3066712286       28.0363047304       14.5673448125  TIP3      3830            0.0000000000
     28841      3967  TIP3      OH2            31.5185444699       32.9893737246       14.7543936862  TIP3      3831            0.0000000000
     28842      3967  TIP3      H1             31.2932168151       33.5048749094       15.5443711636  TIP3      3831            0.0000000000
     28843      3967  TIP3      H2             31.3173896690       32.0752505901       15.0511165491  TIP3      3831            0.0000000000
     28844      3968  TIP3      OH2            26.0284751572       32.2031403290       18.7897741557  TIP3      3832            0.0000000000
     28845      3968  TIP3      H1             25.2655854540       32.6587387655       19.2136697365  TIP3      3832            0.0000000000
     28846      3968  TIP3      H2             25.6286910510       32.0259075893       17.9109765927  TIP3      3832            0.0000000000
     28847      3969  TIP3      OH2            32.1950211845       27.6789387726        6.5879836935  TIP3      3833            0.0000000000
     28848      3969  TIP3      H1             32.9312794691       27.8688708009        7.2121342328  TIP3      3833            0.0000000000
     28849      3969  TIP3      H2             32.6197141908       27.9666333483        5.7470868810  TIP3      3833            0.0000000000
     28850      3970  TIP3      OH2            23.0990014857       27.9503968088       17.6491043560  TIP3      3834            0.0000000000
     28851      3970  TIP3      H1             23.3848019785       28.8005575547       18.0027237564  TIP3      3834            0.0000000000
     28852      3970  TIP3      H2             22.2343987266       27.8189896412       18.0809267137  TIP3      3834            0.0000000000
     28853      3971  TIP3      OH2            29.0436732567       33.4861083926        9.3107158073  TIP3      3835            0.0000000000
     28854      3971  TIP3      H1             29.4925959556       34.1401103694        9.8509629507  TIP3      3835            0.0000000000
     28855      3971  TIP3      H2             28.8957976903       33.9327451694        8.4539664024  TIP3      3835            0.0000000000
     28856      3972  TIP3      OH2            23.9071233583       33.6004000773       19.5000764675  TIP3      3836            0.0000000000
     28857      3972  TIP3      H1             23.8356147771       34.0663342566       18.6318530999  TIP3      3836            0.0000000000
     28858      3972  TIP3      H2             22.9688962330       33.4142739252       19.7296325945  TIP3      3836            0.0000000000
     28859      3973  TIP3      OH2            35.9059195427       18.8536562339        6.4900102220  TIP3      3837            0.0000000000
     28860      3973  TIP3      H1             34.9298888543       18.7130280361        6.4049673878  TIP3      3837            0.0000000000
     28861      3973  TIP3      H2             36.0205873814       19.6949191152        5.9986416242  TIP3      3837            0.0000000000
     28862      3974  TIP3      OH2            23.7217609749       27.3948687552        7.3452240505  TIP3      3838            0.0000000000
     28863      3974  TIP3      H1             23.0177044050       28.0089244503        7.0461576637  TIP3      3838            0.0000000000
     28864      3974  TIP3      H2             23.2390502784       26.5993905498        7.5979595275  TIP3      3838            0.0000000000
     28865      3975  TIP3      OH2            37.1743240677       33.2832464763        4.4728753608  TIP3      3839            0.0000000000
     28866      3975  TIP3      H1             37.1786287693       34.1253829731        4.9777214752  TIP3      3839            0.0000000000
     28867      3975  TIP3      H2             37.8135105056       33.4991118896        3.7761760419  TIP3      3839            0.0000000000
     28868      3976  TIP3      OH2            19.8835191156       30.2814543752       16.6238598086  TIP3      3840            0.0000000000
     28869      3976  TIP3      H1             19.1860434919       30.0591391697       15.9923277074  TIP3      3840            0.0000000000
     28870      3976  TIP3      H2             20.2702368493       29.3857201332       16.7485325971  TIP3      3840            0.0000000000
     28871      3977  TIP3      OH2            20.0942095836       32.8035755998       13.6236698539  TIP3      3841            0.0000000000
     28872      3977  TIP3      H1             20.9728818185       32.3972054039       13.5343884152  TIP3      3841            0.0000000000
     28873      3977  TIP3      H2             20.2062173306       33.2781455486       14.4678497082  TIP3      3841            0.0000000000
     28874      3978  TIP3      OH2            37.5861505245       33.8427651466       19.1778968655  TIP3      3842            0.0000000000
     28875      3978  TIP3      H1             37.4200009293       32.8938289337       19.0053831901  TIP3      3842            0.0000000000
     28876      3978  TIP3      H2             36.7420532546       34.1038856485       19.6100974530  TIP3      3842            0.0000000000
     28877      3979  TIP3      OH2            28.4495845107       33.2635977419       18.1911480171  TIP3      3843            0.0000000000
     28878      3979  TIP3      H1             28.6530520320       34.0553566160       18.7294213275  TIP3      3843            0.0000000000
     28879      3979  TIP3      H2             27.5307619098       33.0387106770       18.4597617426  TIP3      3843            0.0000000000
     28880      3980  TIP3      OH2            28.9984333721       36.8820614061        7.7142146779  TIP3      3844            0.0000000000
     28881      3980  TIP3      H1             29.0549111858       37.0174096965        6.7515956226  TIP3      3844            0.0000000000
     28882      3980  TIP3      H2             29.1761317836       37.7742617010        8.0783590825  TIP3      3844            0.0000000000
     28883      3981  TIP3      OH2            23.2411502081       35.7128265054        9.7201853138  TIP3      3845            0.0000000000
     28884      3981  TIP3      H1             23.4083160040       35.3636773227       10.6256203137  TIP3      3845            0.0000000000
     28885      3981  TIP3      H2             22.5754799191       35.0704688950        9.3838977268  TIP3      3845            0.0000000000
     28886      3982  TIP3      OH2            32.3804112113       36.0808995450        4.5670715487  TIP3      3846            0.0000000000
     28887      3982  TIP3      H1             32.9992751671       35.3626343440        4.3242891624  TIP3      3846            0.0000000000
     28888      3982  TIP3      H2             32.9034556960       36.6185702153        5.2056561569  TIP3      3846            0.0000000000
     28889      3983  TIP3      OH2            31.7700836891       36.2914454042        8.2658606589  TIP3      3847            0.0000000000
     28890      3983  TIP3      H1             30.8198636111       36.1475898473        8.1023233247  TIP3      3847            0.0000000000
     28891      3983  TIP3      H2             32.0067554459       35.5687192932        8.8870183609  TIP3      3847            0.0000000000
     28892      3984  TIP3      OH2            34.3451139758       24.7044245277       20.1699668410  TIP3      3848            0.0000000000
     28893      3984  TIP3      H1             33.9384249433       25.1664373869       19.4143951949  TIP3      3848            0.0000000000
     28894      3984  TIP3      H2             34.2217224059       23.7715202720       19.9076382957  TIP3      3848            0.0000000000
     28895      3985  TIP3      OH2            22.1663897021       31.4875196833       17.5069465460  TIP3      3849            0.0000000000
     28896      3985  TIP3      H1             22.0518831093       31.2524432228       18.4519279026  TIP3      3849            0.0000000000
     28897      3985  TIP3      H2             21.2923264505       31.2131331341       17.1393391999  TIP3      3849            0.0000000000
     28898      3986  TIP3      OH2            24.8057041497       20.0141323721       13.8577283156  TIP3      3850            0.0000000000
     28899      3986  TIP3      H1             23.9616332386       20.1518100545       13.3902345409  TIP3      3850            0.0000000000
     28900      3986  TIP3      H2             24.6693711180       20.5789470545       14.6512652660  TIP3      3850            0.0000000000
     28901      3987  TIP3      OH2            29.7126049459       19.4455321193       17.2630163576  TIP3      3851            0.0000000000
     28902      3987  TIP3      H1             30.0377912645       19.1441884617       18.1278432159  TIP3      3851            0.0000000000
     28903      3987  TIP3      H2             28.7506747762       19.6001438580       17.4004813251  TIP3      3851            0.0000000000
     28904      3988  TIP3      OH2            31.9581932743       23.6507892892       18.0637955041  TIP3      3852            0.0000000000
     28905      3988  TIP3      H1             31.5258967425       23.3728636320       18.9128706946  TIP3      3852            0.0000000000
     28906      3988  TIP3      H2             32.2826270518       24.5450061161       18.2673459089  TIP3      3852            0.0000000000
     28907      3989  TIP3      OH2            33.5445969622       28.5407095375        4.5029367520  TIP3      3853            0.0000000000
     28908      3989  TIP3      H1             33.4700440606       28.7030782754        3.5508691696  TIP3      3853            0.0000000000
     28909      3989  TIP3      H2             34.2822513684       29.1113533069        4.7648696234  TIP3      3853            0.0000000000
     28910      3990  TIP3      OH2            29.2506557967       22.4886302105        4.3739410959  TIP3      3854            0.0000000000
     28911      3990  TIP3      H1             28.7799391685       22.3903990053        5.2293045411  TIP3      3854            0.0000000000
     28912      3990  TIP3      H2             29.3106207904       21.5729333092        4.0949485174  TIP3      3854            0.0000000000
     28913      3991  TIP3      OH2            24.8617524493       24.9619356574       15.2952670052  TIP3      3855            0.0000000000
     28914      3991  TIP3      H1             24.0616797757       24.9177932535       15.8559518035  TIP3      3855            0.0000000000
     28915      3991  TIP3      H2             24.8002742233       25.8854820333       14.9474823005  TIP3      3855            0.0000000000
     28916      3992  TIP3      OH2            24.9593058656       24.5772440557       10.0639887059  TIP3      3856            0.0000000000
     28917      3992  TIP3      H1             23.9888623237       24.4300642309        9.9723359668  TIP3      3856            0.0000000000
     28918      3992  TIP3      H2             25.2848455002       24.2873370233        9.1843530258  TIP3      3856            0.0000000000
     28919      3993  TIP3      OH2            30.5460970664       25.8714744806        8.9774600781  TIP3      3857            0.0000000000
     28920      3993  TIP3      H1             30.1340798548       26.4902575665        8.3249939676  TIP3      3857            0.0000000000
     28921      3993  TIP3      H2             31.1271222015       25.3793236270        8.3628840014  TIP3      3857            0.0000000000
     28922      3994  TIP3      OH2            29.2811402524       26.3423904327       19.8830235342  TIP3      3858            0.0000000000
     28923      3994  TIP3      H1             28.7862984534       25.5428067794       20.1896485102  TIP3      3858            0.0000000000
     28924      3994  TIP3      H2             30.0761104457       26.2095623969       20.4401645530  TIP3      3858            0.0000000000
     28925      3995  TIP3      OH2            31.6091002808       25.3382578707       11.9137456296  TIP3      3859            0.0000000000
     28926      3995  TIP3      H1             31.1860458980       26.0486628028       11.3875784556  TIP3      3859            0.0000000000
     28927      3995  TIP3      H2             31.5655114566       24.5823114292       11.2895691086  TIP3      3859            0.0000000000
     28928      3996  TIP3      OH2            22.4780069029       24.8710334459       16.5495075809  TIP3      3860            0.0000000000
     28929      3996  TIP3      H1             22.5268384712       25.3677733558       17.3795469600  TIP3      3860            0.0000000000
     28930      3996  TIP3      H2             22.1218592491       24.0112148356       16.8541403079  TIP3      3860            0.0000000000
     28931      3997  TIP3      OH2            25.5533005230       22.8445573475        3.8505503557  TIP3      3861            0.0000000000
     28932      3997  TIP3      H1             25.1587321041       22.4608311745        4.6490993440  TIP3      3861            0.0000000000
     28933      3997  TIP3      H2             25.3612539291       23.7853950423        3.9461178149  TIP3      3861            0.0000000000
     28934      3998  TIP3      OH2            19.2241138509       22.2153224223       11.1066631210  TIP3      3862            0.0000000000
     28935      3998  TIP3      H1             19.8814905868       22.1995080992       11.8220191829  TIP3      3862            0.0000000000
     28936      3998  TIP3      H2             19.7479920713       22.4793743527       10.3374769888  TIP3      3862            0.0000000000
     28937      3999  TIP3      OH2            20.7999587611       22.9306230004        6.0931047788  TIP3      3863            0.0000000000
     28938      3999  TIP3      H1             21.1586288069       23.3677987038        5.2936104492  TIP3      3863            0.0000000000
     28939      3999  TIP3      H2             20.0635510081       23.5382954442        6.3129894033  TIP3      3863            0.0000000000
     28940      4000  TIP3      OH2            30.4025388782       26.8088752415       15.8152713140  TIP3      3864            0.0000000000
     28941      4000  TIP3      H1             31.0263290851       26.1572711334       15.4202356797  TIP3      3864            0.0000000000
     28942      4000  TIP3      H2             29.9236399923       26.2037659008       16.4240451922  TIP3      3864            0.0000000000
     28943      4001  TIP3      OH2            27.9024104337       22.1380925655       10.9619576296  TIP3      3865            0.0000000000
     28944      4001  TIP3      H1             26.9852387861       22.2086206407       11.2697600688  TIP3      3865            0.0000000000
     28945      4001  TIP3      H2             28.2943147865       21.5907906965       11.6712389615  TIP3      3865            0.0000000000
     28946      4002  TIP3      OH2            22.2978902576       23.8497866941        9.9864609385  TIP3      3866            0.0000000000
     28947      4002  TIP3      H1             21.6557094164       24.2213823217        9.3468067589  TIP3      3866            0.0000000000
     28948      4002  TIP3      H2             22.3903174173       22.9189013743        9.6770996657  TIP3      3866            0.0000000000
     28949      4003  TIP3      OH2            25.7582573194       24.0122520741        7.4988378277  TIP3      3867            0.0000000000
     28950      4003  TIP3      H1             26.6867675503       24.1578382300        7.8010113685  TIP3      3867            0.0000000000
     28951      4003  TIP3      H2             25.5237610309       24.8614246999        7.0974947835  TIP3      3867            0.0000000000
     28952      4004  TIP3      OH2            31.8168123474       21.7645107167       13.9881806575  TIP3      3868            0.0000000000
     28953      4004  TIP3      H1             31.3007850763       21.6569168546       14.8269397812  TIP3      3868            0.0000000000
     28954      4004  TIP3      H2             31.4731030144       21.0507843798       13.4324458880  TIP3      3868            0.0000000000
     28955      4005  TIP3      OH2            24.1970006241       25.7947126603        4.6373328008  TIP3      3869            0.0000000000
     28956      4005  TIP3      H1             23.8098642908       25.4960584859        3.7952762783  TIP3      3869            0.0000000000
     28957      4005  TIP3      H2             25.1400972309       25.8879816358        4.4015535820  TIP3      3869            0.0000000000
     28958      4006  TIP3      OH2            34.5550086082       37.6218507471       20.6588918185  TIP3      3870            0.0000000000
     28959      4006  TIP3      H1             35.1475959252       38.2476171939       20.2061303085  TIP3      3870            0.0000000000
     28960      4006  TIP3      H2             34.9430799633       37.7104774449       21.5522749383  TIP3      3870            0.0000000000
     28961      4007  TIP3      OH2            22.0809122765       30.3247586313       20.0086677479  TIP3      3871            0.0000000000
     28962      4007  TIP3      H1             22.9118715593       30.4929402629       20.4716470548  TIP3      3871            0.0000000000
     28963      4007  TIP3      H2             21.5320484181       29.9113988916       20.6944260384  TIP3      3871            0.0000000000
     28964      4008  TIP3      OH2            28.1199269638       25.3713822992       12.0456244352  TIP3      3872            0.0000000000
     28965      4008  TIP3      H1             28.9851673352       24.9670179911       11.9053888010  TIP3      3872            0.0000000000
     28966      4008  TIP3      H2             27.6761695276       24.6975658975       12.6073549684  TIP3      3872            0.0000000000
     28967      4009  TIP3      OH2            23.2066312962       21.3412553641        9.2649113711  TIP3      3873            0.0000000000
     28968      4009  TIP3      H1             22.6983004692       20.6082037221        9.6856980762  TIP3      3873            0.0000000000
     28969      4009  TIP3      H2             23.6030024190       20.9130835859        8.4868380131  TIP3      3873            0.0000000000
     28970      4010  TIP3      OH2            26.7848942348       23.6126542871       14.0905419952  TIP3      3874            0.0000000000
     28971      4010  TIP3      H1             25.9535719757       23.9910614775       14.4635183010  TIP3      3874            0.0000000000
     28972      4010  TIP3      H2             27.4197497644       23.9468230325       14.7418693654  TIP3      3874            0.0000000000
     28973      4011  TIP3      OH2            27.9270848614       29.7069867661        7.3954444338  TIP3      3875            0.0000000000
     28974      4011  TIP3      H1             27.1869323243       29.2043403415        6.9721612817  TIP3      3875            0.0000000000
     28975      4011  TIP3      H2             27.4429444179       30.0995724738        8.1620509915  TIP3      3875            0.0000000000
     28976      4012  TIP3      OH2            35.0556622140       29.6198710783       15.7486595855  TIP3      3876            0.0000000000
     28977      4012  TIP3      H1             35.5468200989       30.0952234188       15.0397825648  TIP3      3876            0.0000000000
     28978      4012  TIP3      H2             34.2326741681       29.3723702481       15.2848294471  TIP3      3876            0.0000000000
     28979      4013  TIP3      OH2            31.6079346542       22.8361859822        5.7155149908  TIP3      3877            0.0000000000
     28980      4013  TIP3      H1             30.8171250951       22.8458103666        5.1467436011  TIP3      3877            0.0000000000
     28981      4013  TIP3      H2             31.7611745671       23.7888335772        5.8787764441  TIP3      3877            0.0000000000
     28982      4014  TIP3      OH2            28.8523359553       30.6666775283       17.8511074220  TIP3      3878            0.0000000000
     28983      4014  TIP3      H1             28.8053360659       30.4750938101       18.7993335026  TIP3      3878            0.0000000000
     28984      4014  TIP3      H2             28.6501177724       31.6321065553       17.8675900616  TIP3      3878            0.0000000000
     28985      4015  TIP3      OH2            32.1044374474       25.0751029240        6.9240265876  TIP3      3879            0.0000000000
     28986      4015  TIP3      H1             32.9019746571       24.7205872530        7.3704366200  TIP3      3879            0.0000000000
     28987      4015  TIP3      H2             32.2864004597       26.0364653026        6.8989767549  TIP3      3879            0.0000000000
     28988      4016  TIP3      OH2            22.9783409321       29.2977288362       12.4804910175  TIP3      3880            0.0000000000
     28989      4016  TIP3      H1             23.3113656792       29.1458042591       11.5727334006  TIP3      3880            0.0000000000
     28990      4016  TIP3      H2             23.4565886260       28.6177454744       12.9810457182  TIP3      3880            0.0000000000
     28991      4017  TIP3      OH2            29.6190537068       31.1826230545        5.9702749585  TIP3      3881            0.0000000000
     28992      4017  TIP3      H1             29.2732271767       32.0557783051        6.2563524515  TIP3      3881            0.0000000000
     28993      4017  TIP3      H2             29.0147183067       30.5703522504        6.4496915657  TIP3      3881            0.0000000000
     28994      4018  TIP3      OH2            20.0578003818       27.7246021323       17.5949497758  TIP3      3882            0.0000000000
     28995      4018  TIP3      H1             19.8591906369       27.2645182619       18.4354844848  TIP3      3882            0.0000000000
     28996      4018  TIP3      H2             19.3799299941       27.3547402776       17.0048819756  TIP3      3882            0.0000000000
     28997      4019  TIP3      OH2            26.9284973392       27.5498956998       20.2071872115  TIP3      3883            0.0000000000
     28998      4019  TIP3      H1             26.4147807119       26.8554367814       19.7536908138  TIP3      3883            0.0000000000
     28999      4019  TIP3      H2             27.8401302526       27.2006123578       20.0721228231  TIP3      3883            0.0000000000
     29000      4020  TIP3      OH2            31.9190056230       32.7752992997       18.3043216990  TIP3      3884            0.0000000000
     29001      4020  TIP3      H1             31.1105937675       33.0237450294       17.8326642601  TIP3      3884            0.0000000000
     29002      4020  TIP3      H2             31.7639857228       33.2076914774       19.1705883816  TIP3      3884            0.0000000000
     29003      4021  TIP3      OH2            37.2744658490       24.4851555282        6.7296854891  TIP3      3885            0.0000000000
     29004      4021  TIP3      H1             36.8676304141       24.4090707475        5.8343774346  TIP3      3885            0.0000000000
     29005      4021  TIP3      H2             37.5245695210       25.4173634802        6.7366224151  TIP3      3885            0.0000000000
     29006      4022  TIP3      OH2            37.6033609931       31.0630226187       19.1716861719  TIP3      3886            0.0000000000
     29007      4022  TIP3      H1             36.6809273380       31.0139583435       18.8260781395  TIP3      3886            0.0000000000
     29008      4022  TIP3      H2             38.1098220594       30.7986380727       18.3722136018  TIP3      3886            0.0000000000
     29009      4023  TIP3      OH2            35.5455936512       33.4147802978        6.7590173413  TIP3      3887            0.0000000000
     29010      4023  TIP3      H1             35.0274702738       32.7167830679        7.1778856562  TIP3      3887            0.0000000000
     29011      4023  TIP3      H2             35.9017201719       32.9932129152        5.9649852899  TIP3      3887            0.0000000000
     29012      4024  TIP3      OH2            32.8107156581       28.6721296923       13.8069065534  TIP3      3888            0.0000000000
     29013      4024  TIP3      H1             31.9521008308       28.2993356482       13.5341076990  TIP3      3888            0.0000000000
     29014      4024  TIP3      H2             33.4431512742       28.1726222222       13.2472222825  TIP3      3888            0.0000000000
     29015      4025  TIP3      OH2            25.1069336507       32.8610600153       10.2303115492  TIP3      3889            0.0000000000
     29016      4025  TIP3      H1             25.6758923709       33.6479987815       10.2464933201  TIP3      3889            0.0000000000
     29017      4025  TIP3      H2             24.3379559521       33.1916315287        9.7438359144  TIP3      3889            0.0000000000
     29018      4026  TIP3      OH2            21.0550930480       28.3349703473        3.9170269292  TIP3      3890            0.0000000000
     29019      4026  TIP3      H1             21.5093460137       28.5204742564        4.7641009398  TIP3      3890            0.0000000000
     29020      4026  TIP3      H2             20.1525911938       28.1287553238        4.2566647194  TIP3      3890            0.0000000000
     29021      4027  TIP3      OH2            26.3109907544       30.5199500955        9.5521157589  TIP3      3891            0.0000000000
     29022      4027  TIP3      H1             25.8809856717       31.3917509581        9.7039786358  TIP3      3891            0.0000000000
     29023      4027  TIP3      H2             25.7960378202       29.9049349023       10.1083275013  TIP3      3891            0.0000000000
     29024      4028  TIP3      OH2            27.2077093525       34.7929169661       16.3250333212  TIP3      3892            0.0000000000
     29025      4028  TIP3      H1             27.7974911447       35.4199392266       15.8507276704  TIP3      3892            0.0000000000
     29026      4028  TIP3      H2             27.8276851896       34.4073527980       16.9812034907  TIP3      3892            0.0000000000
     29027      4029  TIP3      OH2            25.7805546017       35.4873260269        8.9097530693  TIP3      3893            0.0000000000
     29028      4029  TIP3      H1             24.8477028920       35.6284158514        9.1946339147  TIP3      3893            0.0000000000
     29029      4029  TIP3      H2             26.2095821000       36.2525301074        9.3245451360  TIP3      3893            0.0000000000
     29030      4030  TIP3      OH2            30.3854147580       30.5678747304       15.5373105791  TIP3      3894            0.0000000000
     29031      4030  TIP3      H1             30.0256283783       30.4184688387       16.4473207942  TIP3      3894            0.0000000000
     29032      4030  TIP3      H2             30.7004848790       29.6720844255       15.3043095586  TIP3      3894            0.0000000000
     29033      4031  TIP3      OH2            32.9690399062       32.0102179378        5.0206808370  TIP3      3895            0.0000000000
     29034      4031  TIP3      H1             33.1478742788       31.5731550736        5.8818656018  TIP3      3895            0.0000000000
     29035      4031  TIP3      H2             32.1145078831       31.6178194957        4.8146560003  TIP3      3895            0.0000000000
     29036      4032  TIP3      OH2            33.6275071419       35.2368217318       17.7737200286  TIP3      3896            0.0000000000
     29037      4032  TIP3      H1             32.7369094289       34.8631627374       17.6192631726  TIP3      3896            0.0000000000
     29038      4032  TIP3      H2             33.6586752364       35.9619610394       17.0991756865  TIP3      3896            0.0000000000
     29039      4033  TIP3      OH2            37.4510524102       35.9962888702        5.1758169627  TIP3      3897            0.0000000000
     29040      4033  TIP3      H1             37.5959735496       36.3827802705        4.2936966625  TIP3      3897            0.0000000000
     29041      4033  TIP3      H2             36.9177045936       36.6883109081        5.6267716335  TIP3      3897            0.0000000000
     29042      4034  TIP3      OH2            22.0185767855       22.2038126806       17.5249488712  TIP3      3898            0.0000000000
     29043      4034  TIP3      H1             21.2230027866       22.6136853931       17.8905536388  TIP3      3898            0.0000000000
     29044      4034  TIP3      H2             22.2086138229       21.5513022103       18.2281027358  TIP3      3898            0.0000000000
     29045      4035  TIP3      OH2            33.8676582228       30.4977199388        7.0915615722  TIP3      3899            0.0000000000
     29046      4035  TIP3      H1             33.6422135505       29.6860800112        7.5859784500  TIP3      3899            0.0000000000
     29047      4035  TIP3      H2             34.8449349849       30.3935095086        7.0703684755  TIP3      3899            0.0000000000
     29048      4036  TIP3      OH2            21.3283817344       34.1988431609       15.6916672111  TIP3      3900            0.0000000000
     29049      4036  TIP3      H1             21.9927144085       33.5013841654       15.8143229151  TIP3      3900            0.0000000000
     29050      4036  TIP3      H2             21.4276518125       34.6833368306       16.5289404974  TIP3      3900            0.0000000000
     29051      4037  TIP3      OH2            25.8163846565       32.1697759603        5.7672270960  TIP3      3901            0.0000000000
     29052      4037  TIP3      H1             26.3336321761       31.5810091922        6.3344286567  TIP3      3901            0.0000000000
     29053      4037  TIP3      H2             26.0400461066       33.0666269777        6.1069586478  TIP3      3901            0.0000000000
     29054      4038  TIP3      OH2            22.1851665432       29.4801957745        6.2265266112  TIP3      3902            0.0000000000
     29055      4038  TIP3      H1             21.5367077780       29.8919492992        6.8409650635  TIP3      3902            0.0000000000
     29056      4038  TIP3      H2             22.6569046092       30.2482820931        5.8527416542  TIP3      3902            0.0000000000
     29057      4039  TIP3      OH2            30.5569851591       22.0514011059       16.3459975514  TIP3      3903            0.0000000000
     29058      4039  TIP3      H1             31.1486040715       22.6149103444       16.8878580959  TIP3      3903            0.0000000000
     29059      4039  TIP3      H2             30.1520482272       21.4733268605       17.0182862785  TIP3      3903            0.0000000000
     29060      4040  TIP3      OH2            31.0205306126       21.8774008380        8.1264963485  TIP3      3904            0.0000000000
     29061      4040  TIP3      H1             31.3605054293       22.2295630182        7.2713711151  TIP3      3904            0.0000000000
     29062      4040  TIP3      H2             31.5207472687       22.3704306510        8.8061554603  TIP3      3904            0.0000000000
     29063      4041  TIP3      OH2            28.9280369914       33.8496205520        6.5017774797  TIP3      3905            0.0000000000
     29064      4041  TIP3      H1             28.0681654416       34.3066983547        6.3984678696  TIP3      3905            0.0000000000
     29065      4041  TIP3      H2             29.4171441650       34.1533915366        5.7183506966  TIP3      3905            0.0000000000
     29066      4042  TIP3      OH2            28.1648861140       23.7934912025        8.7473038736  TIP3      3906            0.0000000000
     29067      4042  TIP3      H1             28.8887745608       24.4143096501        8.9411654993  TIP3      3906            0.0000000000
     29068      4042  TIP3      H2             28.1288130636       23.2645811826        9.5753875928  TIP3      3906            0.0000000000
     29069      4043  TIP3      OH2            29.2223553967       25.0420081868       17.5070866374  TIP3      3907            0.0000000000
     29070      4043  TIP3      H1             29.1159444465       25.6636033140       18.2647889432  TIP3      3907            0.0000000000
     29071      4043  TIP3      H2             29.3827817734       24.2056604604       17.9618860226  TIP3      3907            0.0000000000
     29072      4044  TIP3      OH2            29.1107451085       20.2929332059        9.0715416849  TIP3      3908            0.0000000000
     29073      4044  TIP3      H1             28.6926300947       20.8629847496        9.7484136740  TIP3      3908            0.0000000000
     29074      4044  TIP3      H2             29.8816766170       20.8576873415        8.8118197004  TIP3      3908            0.0000000000
     29075      4045  TIP3      OH2            26.3647375792       34.8417821293        6.2898764384  TIP3      3909            0.0000000000
     29076      4045  TIP3      H1             26.5124466909       35.7213160580        5.8930357179  TIP3      3909            0.0000000000
     29077      4045  TIP3      H2             25.9619565999       35.1131212311        7.1410832251  TIP3      3909            0.0000000000
     29078      4046  TIP3      OH2            24.6362500048       21.5290814046        6.4844161376  TIP3      3910            0.0000000000
     29079      4046  TIP3      H1             24.7386232740       22.4088966216        6.8911420256  TIP3      3910            0.0000000000
     29080      4046  TIP3      H2             25.5268731881       21.1489260691        6.5854917959  TIP3      3910            0.0000000000
     29081      4047  TIP3      OH2            34.7528634035       22.4261085539       18.7892579871  TIP3      3911            0.0000000000
     29082      4047  TIP3      H1             33.8858358456       22.1535238454       18.4626858005  TIP3      3911            0.0000000000
     29083      4047  TIP3      H2             35.1842717894       22.6545754785       17.9473135380  TIP3      3911            0.0000000000
     29084      4048  TIP3      OH2            34.0494182109       26.7679765558       12.1592003115  TIP3      3912            0.0000000000
     29085      4048  TIP3      H1             33.1821649875       26.3351425538       12.2281043072  TIP3      3912            0.0000000000
     29086      4048  TIP3      H2             34.5853345301       26.1614626608       12.7210796679  TIP3      3912            0.0000000000
     29087      4049  TIP3      OH2            23.1259155847       32.1164294086        4.7235044964  TIP3      3913            0.0000000000
     29088      4049  TIP3      H1             23.9703420441       32.3085496545        5.1858477187  TIP3      3913            0.0000000000
     29089      4049  TIP3      H2             23.4286390562       31.4602670611        4.0768663904  TIP3      3913            0.0000000000
     29090      4050  TIP3      OH2            21.1718678816       25.1275670807        4.2322832305  TIP3      3914            0.0000000000
     29091      4050  TIP3      H1             21.9275353127       25.6728055114        4.4763838490  TIP3      3914            0.0000000000
     29092      4050  TIP3      H2             20.5651235363       25.7822523481        3.8671357787  TIP3      3914            0.0000000000
     29093      4051  TIP3      OH2            34.4608010555       35.5215603782       13.9297113003  TIP3      3915            0.0000000000
     29094      4051  TIP3      H1             34.3272160281       36.0686668579       13.1365744336  TIP3      3915            0.0000000000
     29095      4051  TIP3      H2             35.4413667065       35.4669796562       13.9465364732  TIP3      3915            0.0000000000
     29096      4052  TIP3      OH2            22.1353092937       19.5872474511       13.3715406043  TIP3      3916            0.0000000000
     29097      4052  TIP3      H1             22.0011388704       19.3335976175       12.4368223186  TIP3      3916            0.0000000000
     29098      4052  TIP3      H2             21.8817247525       18.7355448458       13.7875810972  TIP3      3916            0.0000000000
     29099      4053  TIP3      OH2            21.1887895042       34.1258075435        9.4106705513  TIP3      3917            0.0000000000
     29100      4053  TIP3      H1             20.6500237523       34.5996113405       10.0753694571  TIP3      3917            0.0000000000
     29101      4053  TIP3      H2             20.7039679193       34.3053780694        8.5736004655  TIP3      3917            0.0000000000
     29102      4054  TIP3      OH2            20.0425404915       36.3944555513       20.1642386189  TIP3      3918            0.0000000000
     29103      4054  TIP3      H1             20.7031368825       36.0612083515       20.8146472912  TIP3      3918            0.0000000000
     29104      4054  TIP3      H2             19.5957506724       35.5570186021       19.9350560871  TIP3      3918            0.0000000000
     29105      4055  TIP3      OH2            24.1104213774       35.6219897706       21.3966988296  TIP3      3919            0.0000000000
     29106      4055  TIP3      H1             24.9198659365       35.5824989200       21.9327508088  TIP3      3919            0.0000000000
     29107      4055  TIP3      H2             24.2873075108       34.9754690836       20.6728069000  TIP3      3919            0.0000000000
     29108      4056  TIP3      OH2            31.4742585960       34.2787537780       20.6104307759  TIP3      3920            0.0000000000
     29109      4056  TIP3      H1             31.1716683339       33.4167643544       20.9947220626  TIP3      3920            0.0000000000
     29110      4056  TIP3      H2             32.1392636578       34.5743871999       21.2744761404  TIP3      3920            0.0000000000
     29111      4057  TIP3      OH2            34.1224012707       33.9358236573        3.3420284061  TIP3      3921            0.0000000000
     29112      4057  TIP3      H1             33.7280370294       33.2964469141        3.9766456423  TIP3      3921            0.0000000000
     29113      4057  TIP3      H2             35.0751059122       33.8229433073        3.5022871555  TIP3      3921            0.0000000000
     29114      4058  TIP3      OH2            19.7054792498       29.7785822957       21.4260616034  TIP3      3922            0.0000000000
     29115      4058  TIP3      H1             19.7558850565       28.8104509691       21.3391893384  TIP3      3922            0.0000000000
     29116      4058  TIP3      H2             19.5107052750       30.0522296975       20.5098457584  TIP3      3922            0.0000000000
     29117      4059  TIP3      OH2            24.6205472848       29.9840971138        3.5019436092  TIP3      3923            0.0000000000
     29118      4059  TIP3      H1             25.2929382409       30.1011692583        4.1943946413  TIP3      3923            0.0000000000
     29119      4059  TIP3      H2             25.1949142060       29.6624852025        2.7721672573  TIP3      3923            0.0000000000
     29120      4060  TIP3      OH2            26.9398967712       30.3525172771       20.4465277421  TIP3      3924            0.0000000000
     29121      4060  TIP3      H1             26.7354732443       30.8813900317       19.6419233152  TIP3      3924            0.0000000000
     29122      4060  TIP3      H2             26.9636315872       29.4087745371       20.1645856678  TIP3      3924            0.0000000000
     29123      4061  TIP3      OH2            32.4428517261       29.9919092132       18.0653569358  TIP3      3925            0.0000000000
     29124      4061  TIP3      H1             33.2107692357       30.5103629072       17.7580158181  TIP3      3925            0.0000000000
     29125      4061  TIP3      H2             31.9561495134       30.7308144958       18.4681027960  TIP3      3925            0.0000000000
     29126      4062  TIP3      OH2            20.7698942319       27.0886885567       20.7771976871  TIP3      3926            0.0000000000
     29127      4062  TIP3      H1             20.6680574339       26.1802888856       21.1170866287  TIP3      3926            0.0000000000
     29128      4062  TIP3      H2             21.2985690427       27.4543672844       21.5196870065  TIP3      3926            0.0000000000
     29129      4063  TIP3      OH2            25.9499670017       28.4051254569        6.0694048948  TIP3      3927            0.0000000000
     29130      4063  TIP3      H1             25.1371664877       28.0332915002        6.4731834164  TIP3      3927            0.0000000000
     29131      4063  TIP3      H2             26.0516108795       27.8231879370        5.2969542972  TIP3      3927            0.0000000000
     29132      4064  TIP3      OH2            25.0164698362       26.2966013494       18.4891245555  TIP3      3928            0.0000000000
     29133      4064  TIP3      H1             24.3071188417       26.9447976732       18.3123910566  TIP3      3928            0.0000000000
     29134      4064  TIP3      H2             25.6855437454       26.6355372269       17.8565117783  TIP3      3928            0.0000000000
     29135      4065  TIP3      OH2            26.9037775674       26.5057051522        4.0142784162  TIP3      3929            0.0000000000
     29136      4065  TIP3      H1             27.0346173072       26.8556313567        3.1209328900  TIP3      3929            0.0000000000
     29137      4065  TIP3      H2             27.8252395754       26.5375131869        4.3453211999  TIP3      3929            0.0000000000
     29138      4066  TIP3      OH2            30.7503868533       29.3450528293       21.3991955550  TIP3      3930            0.0000000000
     29139      4066  TIP3      H1             31.1386988087       28.8933102309       20.6291920706  TIP3      3930            0.0000000000
     29140      4066  TIP3      H2             31.3019855353       28.9984442135       22.1175503128  TIP3      3930            0.0000000000
     29141      4067  TIP3      OH2            36.2932924210       28.9409462460        2.8314891362  TIP3      3931            0.0000000000
     29142      4067  TIP3      H1             35.8316917436       28.7302607062        2.0063834620  TIP3      3931            0.0000000000
     29143      4067  TIP3      H2             36.4278295905       29.8941372070        2.7280172095  TIP3      3931            0.0000000000
     29144      4068  TIP3      OH2            25.1076727239       23.4871802229       18.7391139260  TIP3      3932            0.0000000000
     29145      4068  TIP3      H1             25.7495426102       23.1650172288       18.0799451964  TIP3      3932            0.0000000000
     29146      4068  TIP3      H2             24.9677612541       24.4194091027       18.4826663637  TIP3      3932            0.0000000000
     29147      4069  TIP3      OH2            26.5006569323       22.1604117567       16.7908973734  TIP3      3933            0.0000000000
     29148      4069  TIP3      H1             27.1972367769       22.3888415766       16.1589361303  TIP3      3933            0.0000000000
     29149      4069  TIP3      H2             25.6902260628       22.1892867862       16.2341622209  TIP3      3933            0.0000000000
     29150      4070  TIP3      OH2            27.0422277260       27.5965274569       17.0182627675  TIP3      3934            0.0000000000
     29151      4070  TIP3      H1             27.9909581203       27.6925236298       16.8851711647  TIP3      3934            0.0000000000
     29152      4070  TIP3      H2             26.6860448867       28.3004116200       16.4402179134  TIP3      3934            0.0000000000
     29153      4071  TIP3      OH2            31.2852778194       25.2728988604       21.3542916192  TIP3      3935            0.0000000000
     29154      4071  TIP3      H1             30.8274517348       25.1410836448       22.2305936695  TIP3      3935            0.0000000000
     29155      4071  TIP3      H2             32.1266548048       25.6225203790       21.6616958604  TIP3      3935            0.0000000000
     29156      4072  TIP3      OH2            33.2674604409       28.5222675807       20.2496450736  TIP3      3936            0.0000000000
     29157      4072  TIP3      H1             33.0191738847       28.9500748240       19.3986133390  TIP3      3936            0.0000000000
     29158      4072  TIP3      H2             34.1565183675       28.1929891546       20.0192531346  TIP3      3936            0.0000000000
     29159      4073  TIP3      OH2            23.8173971767       24.7481119223       21.2007885178  TIP3      3937            0.0000000000
     29160      4073  TIP3      H1             23.0504131641       24.2325019105       20.8793313927  TIP3      3937            0.0000000000
     29161      4073  TIP3      H2             24.4592260758       24.5000887687       20.5130303404  TIP3      3937            0.0000000000
     29162      4074  TIP3      OH2            27.0386914453       19.5016909942       16.8299581377  TIP3      3938            0.0000000000
     29163      4074  TIP3      H1             26.6819545430       20.4121435992       16.9660974576  TIP3      3938            0.0000000000
     29164      4074  TIP3      H2             26.2691970814       19.0454824914       16.4506369017  TIP3      3938            0.0000000000
     29165      4075  TIP3      OH2            28.0507080785       24.0076455044       20.6654675365  TIP3      3939            0.0000000000
     29166      4075  TIP3      H1             28.2143751192       24.1149021552       21.6244436019  TIP3      3939            0.0000000000
     29167      4075  TIP3      H2             27.4932304624       23.2037867447       20.6715761654  TIP3      3939            0.0000000000
     29168      4076  TIP3      OH2            30.5616198306       22.6649608512       20.0575667427  TIP3      3940            0.0000000000
     29169      4076  TIP3      H1             29.7960945387       23.1162232688       20.4485516436  TIP3      3940            0.0000000000
     29170      4076  TIP3      H2             31.0777998683       22.3975998401       20.8391164069  TIP3      3940            0.0000000000
     29171      4077  TIP3      OH2            32.2915616679       21.8744633568       22.0557171521  TIP3      3941            0.0000000000
     29172      4077  TIP3      H1             32.2402579426       20.8923701070       21.9702322466  TIP3      3941            0.0000000000
     29173      4077  TIP3      H2             31.7872915227       22.0671269872       22.8579812966  TIP3      3941            0.0000000000
     29174      4078  TIP3      OH2            21.8976501111       22.8528291049       20.5772963459  TIP3      3942            0.0000000000
     29175      4078  TIP3      H1             21.8777963018       21.9067246390       20.3467818900  TIP3      3942            0.0000000000
     29176      4078  TIP3      H2             21.5403325069       22.9085639173       21.4767900777  TIP3      3942            0.0000000000
     29177      4079  TIP3      OH2            26.6622070924       18.8801799756       19.5752443331  TIP3      3943            0.0000000000
     29178      4079  TIP3      H1             27.4011669189       18.2809650175       19.7900797198  TIP3      3943            0.0000000000
     29179      4079  TIP3      H2             26.7309615276       18.8885063346       18.5991525430  TIP3      3943            0.0000000000
     29180      4080  TIP3      OH2            26.8380904098       21.4053120231       21.0075289245  TIP3      3944            0.0000000000
     29181      4080  TIP3      H1             26.7868234347       20.6682320950       20.3707850144  TIP3      3944            0.0000000000
     29182      4080  TIP3      H2             26.4446988057       21.0497828433       21.8139072196  TIP3      3944            0.0000000000
     29183      4081  TIP3      OH2            26.5534462308       37.3678285466        5.0017109901  TIP3      3945            0.0000000000
     29184      4081  TIP3      H1             27.4629493360       37.4445303520        5.3158498719  TIP3      3945            0.0000000000
     29185      4081  TIP3      H2             26.6631343942       37.5493592896        4.0532527894  TIP3      3945            0.0000000000
     29186      4082  TIP3      OH2            20.0542063552       31.1538429590        4.4416473983  TIP3      3946            0.0000000000
     29187      4082  TIP3      H1             20.9034846263       31.5869462200        4.2788875180  TIP3      3946            0.0000000000
     29188      4082  TIP3      H2             19.6440213431       31.1807256128        3.5636624166  TIP3      3946            0.0000000000
     29189      4083  TIP3      OH2            19.1408437910       37.2170219944        9.6732688739  TIP3      3947            0.0000000000
     29190      4083  TIP3      H1             18.5260807901       36.7074143472        9.1025197113  TIP3      3947            0.0000000000
     29191      4083  TIP3      H2             19.3212949551       36.5281744699       10.3529282320  TIP3      3947            0.0000000000
     29192      4084  TIP3      OH2            19.9060178273       35.3813454756       11.4694909032  TIP3      3948            0.0000000000
     29193      4084  TIP3      H1             19.5006967258       34.6046881882       11.8974751083  TIP3      3948            0.0000000000
     29194      4084  TIP3      H2             20.5323149346       35.7179959640       12.1583409171  TIP3      3948            0.0000000000
     29195      4085  TIP3      OH2            37.1897581124       35.8439232904       13.6956336827  TIP3      3949            0.0000000000
     29196      4085  TIP3      H1             37.6815023819       36.0177852959       14.5133668600  TIP3      3949            0.0000000000
     29197      4085  TIP3      H2             36.9174925886       36.7308160719       13.4079442399  TIP3      3949            0.0000000000
     29198      4086  TIP3      OH2            37.1025323448       35.5753112824       17.1376604430  TIP3      3950            0.0000000000
     29199      4086  TIP3      H1             36.6816845637       34.8717033163       16.5919686163  TIP3      3950            0.0000000000
     29200      4086  TIP3      H2             37.3380808118       35.0221579907       17.9054075099  TIP3      3950            0.0000000000
     29201      4087  TIP3      OH2            36.1290446694       31.9075028191       22.0941835179  TIP3      3951            0.0000000000
     29202      4087  TIP3      H1             35.2822734921       31.8700686837       22.5836010162  TIP3      3951            0.0000000000
     29203      4087  TIP3      H2             35.8859678743       32.4305279508       21.3229825339  TIP3      3951            0.0000000000
     29204      4088  TIP3      OH2            36.5151465910       29.7275341208        7.0216530173  TIP3      3952            0.0000000000
     29205      4088  TIP3      H1             37.3780227360       30.0467725331        7.3735461715  TIP3      3952            0.0000000000
     29206      4088  TIP3      H2             36.3335398201       28.9840629200        7.6352794155  TIP3      3952            0.0000000000
     29207      4089  TIP3      OH2            37.2996282325       27.5205455676        9.0732308599  TIP3      3953            0.0000000000
     29208      4089  TIP3      H1             36.5749602154       26.8900860563        9.2804198990  TIP3      3953            0.0000000000
     29209      4089  TIP3      H2             37.6522489754       27.7388512132        9.9596259898  TIP3      3953            0.0000000000
     29210      4090  TIP3      OH2            36.7282677433       30.5663605291       13.8551979708  TIP3      3954            0.0000000000
     29211      4090  TIP3      H1             37.5845777046       30.0836328761       13.8176721887  TIP3      3954            0.0000000000
     29212      4090  TIP3      H2             36.9368944831       31.3468883991       13.3193115954  TIP3      3954            0.0000000000
     29213      4091  TIP3      OH2            35.5880923969       33.4517804607       16.3216044656  TIP3      3955            0.0000000000
     29214      4091  TIP3      H1             34.8566875096       33.9854513877       16.6940818871  TIP3      3955            0.0000000000
     29215      4091  TIP3      H2             35.1978874430       33.1238537068       15.4754402753  TIP3      3955            0.0000000000
     29216      4092  TIP3      OH2            37.1250468291       27.8534673684        5.1495211987  TIP3      3956            0.0000000000
     29217      4092  TIP3      H1             36.7203439099       28.2213405321        4.3345759632  TIP3      3956            0.0000000000
     29218      4092  TIP3      H2             37.1333408895       28.6461111742        5.7317205186  TIP3      3956            0.0000000000
     29219      4093  TIP3      OH2            36.3576852714       24.3305684052        4.0806705745  TIP3      3957            0.0000000000
     29220      4093  TIP3      H1             36.5179000516       24.7566082186        3.2219955007  TIP3      3957            0.0000000000
     29221      4093  TIP3      H2             35.4031765712       24.1945984399        4.0466537486  TIP3      3957            0.0000000000
     29222      4094  TIP3      OH2            35.4487507278       25.7465841850        9.9910011709  TIP3      3958            0.0000000000
     29223      4094  TIP3      H1             34.8454098013       25.0262873059        9.7524113252  TIP3      3958            0.0000000000
     29224      4094  TIP3      H2             35.0187940682       26.1052141114       10.7991132497  TIP3      3958            0.0000000000
     29225      4095  TIP3      OH2            19.8670358620       28.5763623771       14.0612462429  TIP3      3959            0.0000000000
     29226      4095  TIP3      H1             19.8104826881       28.1825111700       13.1595857157  TIP3      3959            0.0000000000
     29227      4095  TIP3      H2             20.7528852313       28.2138003960       14.3036069856  TIP3      3959            0.0000000000
     29228      4096  TIP3      OH2            36.0580222124       28.2547341753       19.3513317036  TIP3      3960            0.0000000000
     29229      4096  TIP3      H1             36.4290442677       27.3436644513       19.4957982800  TIP3      3960            0.0000000000
     29230      4096  TIP3      H2             36.7041532152       28.6653066243       18.7592650498  TIP3      3960            0.0000000000
     29231      4097  TIP3      OH2            36.8651643704       25.8918385112       20.1106451433  TIP3      3961            0.0000000000
     29232      4097  TIP3      H1             36.0369879250       25.3765033878       20.2021809191  TIP3      3961            0.0000000000
     29233      4097  TIP3      H2             37.5513881963       25.1852739954       20.0949488926  TIP3      3961            0.0000000000
     29234      4098  TIP3      OH2            34.0705070228       23.8437058082        8.4032181327  TIP3      3962            0.0000000000
     29235      4098  TIP3      H1             34.2188426405       22.8715270042        8.4370239545  TIP3      3962            0.0000000000
     29236      4098  TIP3      H2             34.9070315192       24.1158101240        8.0037403569  TIP3      3962            0.0000000000
     29237      4099  TIP3      OH2            35.2996478401       24.7735076475       13.6384377288  TIP3      3963            0.0000000000
     29238      4099  TIP3      H1             36.2576824564       24.9276207425       13.7961502519  TIP3      3963            0.0000000000
     29239      4099  TIP3      H2             35.0011087840       24.7442619517       14.5606212671  TIP3      3963            0.0000000000
     29240      4100  TIP3      OH2            35.4953957058       25.3258945441       16.5037430637  TIP3      3964            0.0000000000
     29241      4100  TIP3      H1             34.7391147240       25.5904419852       17.0524492311  TIP3      3964            0.0000000000
     29242      4100  TIP3      H2             35.9185940045       26.1872439953       16.2927299243  TIP3      3964            0.0000000000
     29243      4101  TIP3      OH2            19.4055723775       23.5707620423       19.8679068598  TIP3      3965            0.0000000000
     29244      4101  TIP3      H1             20.2100036263       23.6974340227       20.4030422654  TIP3      3965            0.0000000000
     29245      4101  TIP3      H2             19.0241559693       22.7773504285       20.3018165462  TIP3      3965            0.0000000000
     29246      4102  TIP3      OH2            37.3561536983       19.5280629695       21.6200433031  TIP3      3966            0.0000000000
     29247      4102  TIP3      H1             38.0524703353       19.0909559913       21.1063754096  TIP3      3966            0.0000000000
     29248      4102  TIP3      H2             37.3442416984       20.4373278955       21.2737576300  TIP3      3966            0.0000000000
     29249      4103  TIP3      OH2            34.3477086978       21.0808132315        8.7070389076  TIP3      3967            0.0000000000
     29250      4103  TIP3      H1             34.3886935757       21.0927406982        9.6853654299  TIP3      3967            0.0000000000
     29251      4103  TIP3      H2             34.7238202169       20.2217425006        8.5071412547  TIP3      3967            0.0000000000
     29252      4104  TIP3      OH2            21.0133246058       21.9686664701       13.7542151123  TIP3      3968            0.0000000000
     29253      4104  TIP3      H1             21.3094110186       21.0333305453       13.6454352834  TIP3      3968            0.0000000000
     29254      4104  TIP3      H2             21.8346187771       22.4857801024       13.6422844665  TIP3      3968            0.0000000000
     29255      4105  TIP3      OH2            19.3456616121       24.8422732159       14.1481353075  TIP3      3969            0.0000000000
     29256      4105  TIP3      H1             19.9378020198       24.5446992173       13.4321043845  TIP3      3969            0.0000000000
     29257      4105  TIP3      H2             19.8413845713       25.6017411873       14.4799652337  TIP3      3969            0.0000000000
     29258      4106  TIP3      OH2            37.2718287684       21.6068821918       19.6588599079  TIP3      3970            0.0000000000
     29259      4106  TIP3      H1             36.3861077533       22.0213641534       19.7471844400  TIP3      3970            0.0000000000
     29260      4106  TIP3      H2             36.9936149013       20.8750913343       19.0610279980  TIP3      3970            0.0000000000
     29261      4107  TIP3      OH2            36.5685141911       21.5151151201        5.0814385006  TIP3      3971            0.0000000000
     29262      4107  TIP3      H1             36.4592056085       21.0990801641        4.2116525009  TIP3      3971            0.0000000000
     29263      4107  TIP3      H2             36.6726530903       22.4523556084        4.8312867345  TIP3      3971            0.0000000000
     29264      4108  TIP3      OH2            19.8640033702       21.1259964785        8.0263259345  TIP3      3972            0.0000000000
     29265      4108  TIP3      H1             18.9364805590       21.2144333324        7.7756594397  TIP3      3972            0.0000000000
     29266      4108  TIP3      H2             20.2691700412       21.6211477232        7.2818759568  TIP3      3972            0.0000000000
     29267      4109  TIP3      OH2            34.4703092327       36.3716614240       10.1844773081  TIP3      3973            0.0000000000
     29268      4109  TIP3      H1             35.1421102182       36.1172749929        9.5200260896  TIP3      3973            0.0000000000
     29269      4109  TIP3      H2             34.9545258686       36.9617988382       10.7820705696  TIP3      3973            0.0000000000
     29270      4110  TIP3      OH2            19.2594347540       19.8262723563       16.1183707398  TIP3      3974            0.0000000000
     29271      4110  TIP3      H1             18.7661728291       19.8251480056       16.9573961674  TIP3      3974            0.0000000000
     29272      4110  TIP3      H2             18.7279497964       20.4204534174       15.5556338080  TIP3      3974            0.0000000000
     29273      4111  TIP3      OH2            21.4442551178       33.0236594708       20.2842021081  TIP3      3975            0.0000000000
     29274      4111  TIP3      H1             20.6359239918       33.5195669222       20.0681643034  TIP3      3975            0.0000000000
     29275      4111  TIP3      H2             21.1074792930       32.1151611871       20.3157255853  TIP3      3975            0.0000000000
     29276      4112  TIP3      OH2            24.5500823935       34.7818161104       17.1205289705  TIP3      3976            0.0000000000
     29277      4112  TIP3      H1             24.4420655702       35.5635814654       16.5320600983  TIP3      3976            0.0000000000
     29278      4112  TIP3      H2             25.4857780142       34.5557100968       16.9180439983  TIP3      3976            0.0000000000
     29279      4113  TIP3      OH2            28.7418792222       35.7893566439       19.2777576160  TIP3      3977            0.0000000000
     29280      4113  TIP3      H1             28.7731118528       35.6139340424       20.2506115737  TIP3      3977            0.0000000000
     29281      4113  TIP3      H2             29.6045926007       36.2269943985       19.1302699629  TIP3      3977            0.0000000000
     29282      4114  TIP3      OH2            30.9176325194       37.4147690942       18.7600712974  TIP3      3978            0.0000000000
     29283      4114  TIP3      H1             31.6352980623       36.8302972547       18.4581718077  TIP3      3978            0.0000000000
     29284      4114  TIP3      H2             31.1381345572       37.5767829438       19.6996477444  TIP3      3978            0.0000000000
     29285      4115  TIP3      OH2            36.3070953136       19.5192876213       18.1045931430  TIP3      3979            0.0000000000
     29286      4115  TIP3      H1             35.9359966983       19.9195050144       17.2997251714  TIP3      3979            0.0000000000
     29287      4115  TIP3      H2             36.3447582349       18.5801039831       17.8430564465  TIP3      3979            0.0000000000
     29288      4116  TIP3      OH2            21.9415186190       37.6959069526       16.6177519928  TIP3      3980            0.0000000000
     29289      4116  TIP3      H1             21.1508113037       38.0690757399       16.1657603134  TIP3      3980            0.0000000000
     29290      4116  TIP3      H2             21.6313674057       37.6713181941       17.5356275903  TIP3      3980            0.0000000000
     29291      4117  TIP3      OH2            24.1845893451       36.8766242956       15.5300530222  TIP3      3981            0.0000000000
     29292      4117  TIP3      H1             23.2639879999       37.1086292091       15.8155872485  TIP3      3981            0.0000000000
     29293      4117  TIP3      H2             24.3790015626       37.5701412193       14.8738203662  TIP3      3981            0.0000000000
     29294      4118  TIP3      OH2            28.8117736954       36.6150539352       15.0212739228  TIP3      3982            0.0000000000
     29295      4118  TIP3      H1             28.0823554609       37.0833161076       14.5645655756  TIP3      3982            0.0000000000
     29296      4118  TIP3      H2             29.0850025780       37.2973204125       15.6640218793  TIP3      3982            0.0000000000
     29297      4119  TIP3      OH2            31.2359269039       35.4426417139       16.1991861923  TIP3      3983            0.0000000000
     29298      4119  TIP3      H1             30.5022266481       35.5969686186       15.5766305768  TIP3      3983            0.0000000000
     29299      4119  TIP3      H2             31.8415326811       36.1252538527       15.8739700396  TIP3      3983            0.0000000000
     29300      4120  TIP3      OH2            33.7813300009       37.2613872916       16.0405132009  TIP3      3984            0.0000000000
     29301      4120  TIP3      H1             33.8778034008       38.1885056075       15.7830527252  TIP3      3984            0.0000000000
     29302      4120  TIP3      H2             34.0412934054       36.8179493832       15.2064572607  TIP3      3984            0.0000000000
     29303      4121  TIP3      OH2            21.5866631089       35.8447669701       13.4788432014  TIP3      3985            0.0000000000
     29304      4121  TIP3      H1             21.4396720682       35.2044130612       14.2027011655  TIP3      3985            0.0000000000
     29305      4121  TIP3      H2             22.4732186092       35.5576801803       13.1561040163  TIP3      3985            0.0000000000
     29306      4122  TIP3      OH2            23.7810042416       34.8079575761       12.2344625527  TIP3      3986            0.0000000000
     29307      4122  TIP3      H1             23.6132956761       33.8746563855       12.4882858360  TIP3      3986            0.0000000000
     29308      4122  TIP3      H2             24.6084738248       34.9235196267       12.7567948362  TIP3      3986            0.0000000000
     29309      4123  TIP3      OH2            25.8064122254       34.6182056010       13.9065016654  TIP3      3987            0.0000000000
     29310      4123  TIP3      H1             26.3363212625       33.8309459608       13.6991560015  TIP3      3987            0.0000000000
     29311      4123  TIP3      H2             26.1051706810       34.8253496036       14.8115127551  TIP3      3987            0.0000000000
     29312      4124  TIP3      OH2            28.9931141908       19.9744625618       12.5351635050  TIP3      3988            0.0000000000
     29313      4124  TIP3      H1             28.1801155287       19.4886645881       12.7991828832  TIP3      3988            0.0000000000
     29314      4124  TIP3      H2             29.5902481403       19.2273365962       12.3366789571  TIP3      3988            0.0000000000
     29315      4125  TIP3      OH2            34.8990087067       18.9388660058       12.2943698842  TIP3      3989            0.0000000000
     29316      4125  TIP3      H1             35.5567294085       19.4725979794       11.7864909708  TIP3      3989            0.0000000000
     29317      4125  TIP3      H2             34.0576524563       19.2590036581       11.8913334077  TIP3      3989            0.0000000000
     29318      4126  TIP3      OH2            36.6502504310       19.8842021387       10.4313382887  TIP3      3990            0.0000000000
     29319      4126  TIP3      H1             37.3445997622       19.4309579488        9.9067506650  TIP3      3990            0.0000000000
     29320      4126  TIP3      H2             37.1672265476       20.6670685327       10.7462921076  TIP3      3990            0.0000000000
     29321      4127  TIP3      OH2            21.9547624119       19.2318973363       10.5846403841  TIP3      3991            0.0000000000
     29322      4127  TIP3      H1             21.1606010020       19.0346284883       10.0364149572  TIP3      3991            0.0000000000
     29323      4127  TIP3      H2             22.4348479963       18.3806283174       10.4734168086  TIP3      3991            0.0000000000
     29324      4128  TIP3      OH2            20.9725651994       19.1905316910        6.4758704742  TIP3      3992            0.0000000000
     29325      4128  TIP3      H1             21.3747404083       19.8413116563        5.8548831455  TIP3      3992            0.0000000000
     29326      4128  TIP3      H2             20.5883465880       19.7757639223        7.1624955792  TIP3      3992            0.0000000000
     29327      4129  TIP3      OH2            26.3967292487       18.7581205643       10.3380515274  TIP3      3993            0.0000000000
     29328      4129  TIP3      H1             27.1544424002       19.1686996685        9.8972900632  TIP3      3993            0.0000000000
     29329      4129  TIP3      H2             26.5810929821       18.9238774155       11.2797410446  TIP3      3993            0.0000000000
     29330      4130  TIP3      OH2            32.2891047566       19.4183345483       11.2403767332  TIP3      3994            0.0000000000
     29331      4130  TIP3      H1             31.7582033786       19.6983517867       10.4855291983  TIP3      3994            0.0000000000
     29332      4130  TIP3      H2             31.8212830844       18.5838246461       11.4929104440  TIP3      3994            0.0000000000
     29333      4131  TIP3      OH2            33.2498218014       18.9427967949        6.5357982750  TIP3      3995            0.0000000000
     29334      4131  TIP3      H1             33.0350207616       19.8417199954        6.8401210344  TIP3      3995            0.0000000000
     29335      4131  TIP3      H2             32.8466440128       18.3960102411        7.2555865841  TIP3      3995            0.0000000000
     29336      4132  TIP3      OH2            20.4314520073       35.2038126104        7.0400439317  TIP3      3996            0.0000000000
     29337      4132  TIP3      H1             19.5629872367       35.2927684898        6.6032925792  TIP3      3996            0.0000000000
     29338      4132  TIP3      H2             20.7668263169       36.0923089657        6.8051288929  TIP3      3996            0.0000000000
     29339      4133  TIP3      OH2            22.4553679498       20.6198251677        4.7145191220  TIP3      3997            0.0000000000
     29340      4133  TIP3      H1             23.2838799636       20.1470949885        4.5392718579  TIP3      3997            0.0000000000
     29341      4133  TIP3      H2             22.7811519100       21.3270944003        5.2905384276  TIP3      3997            0.0000000000
     29342      4134  TIP3      OH2            27.9570771276       21.7440549635        6.8971794079  TIP3      3998            0.0000000000
     29343      4134  TIP3      H1             28.3720541512       21.1404827537        7.5366790204  TIP3      3998            0.0000000000
     29344      4134  TIP3      H2             27.9468844013       22.5565356034        7.4441769979  TIP3      3998            0.0000000000
     29345      4135  TIP3      OH2            29.4441760216       36.8642387779        4.8842083332  TIP3      3999            0.0000000000
     29346      4135  TIP3      H1             30.4252640709       36.8503918322        4.8530481439  TIP3      3999            0.0000000000
     29347      4135  TIP3      H2             29.2357972756       36.0163890529        4.4588678781  TIP3      3999            0.0000000000
     29348      4136  TIP3      OH2            36.0361080424       35.6028430277        8.1412857787  TIP3      4000            0.0000000000
     29349      4136  TIP3      H1             35.8666477165       34.8333929825        7.5400593792  TIP3      4000            0.0000000000
     29350      4136  TIP3      H2             36.0587361225       36.3209645989        7.4746138339  TIP3      4000            0.0000000000
     29351      4137  TIP3      OH2            21.8453050993       20.2022410148       19.4275007806  TIP3      4001            0.0000000000
     29352      4137  TIP3      H1             21.2418835437       19.4636396724       19.6146384158  TIP3      4001            0.0000000000
     29353      4137  TIP3      H2             22.6096986632       19.9897527890       19.9962733383  TIP3      4001            0.0000000000
     29354      4138  TIP3      OH2            23.9287033649       19.8875870261       21.2739389532  TIP3      4002            0.0000000000
     29355      4138  TIP3      H1             24.6559337295       19.5330266851       20.7322855707  TIP3      4002            0.0000000000
     29356      4138  TIP3      H2             23.5147177168       19.0501001645       21.5874369026  TIP3      4002            0.0000000000
     29357      4139  TIP3      OH2            22.8302182233       36.5357908144        3.7914992625  TIP3      4003            0.0000000000
     29358      4139  TIP3      H1             21.9961269480       36.9901384296        3.5549092893  TIP3      4003            0.0000000000
     29359      4139  TIP3      H2             22.5625677885       35.9012154896        4.4676849010  TIP3      4003            0.0000000000
     29360      4140  TIP3      OH2            32.3844856273       19.1933406989       21.5984493846  TIP3      4004            0.0000000000
     29361      4140  TIP3      H1             32.3796303594       18.3621177284       22.0862163134  TIP3      4004            0.0000000000
     29362      4140  TIP3      H2             33.2876631312       19.1413041003       21.2045119373  TIP3      4004            0.0000000000
     29363      4141  TIP3      OH2            35.2941747894       34.9611865995       19.8448738826  TIP3      4005            0.0000000000
     29364      4141  TIP3      H1             34.5942739393       34.8420907688       19.1588572167  TIP3      4005            0.0000000000
     29365      4141  TIP3      H2             35.1609208365       35.9104991654       20.0388582463  TIP3      4005            0.0000000000
     29366      4142  TIP3      OH2            50.2604757112       28.6870456060        9.9678954797  TIP3      4006            0.0000000000
     29367      4142  TIP3      H1             50.0258701037       29.5885057890        9.6383268555  TIP3      4006            0.0000000000
     29368      4142  TIP3      H2             49.5678191998       28.1429159584        9.5695105095  TIP3      4006            0.0000000000
     29369      4143  TIP3      OH2            48.9316982349       27.4410051081       13.2519273092  TIP3      4007            0.0000000000
     29370      4143  TIP3      H1             48.8909369664       27.0958656429       14.1717611818  TIP3      4007            0.0000000000
     29371      4143  TIP3      H2             48.1175040239       27.0859957614       12.8637191034  TIP3      4007            0.0000000000
     29372      4144  TIP3      OH2            40.6765408822       27.2072904688       14.7191826692  TIP3      4008            0.0000000000
     29373      4144  TIP3      H1             40.9310936438       26.4970925530       15.3353376987  TIP3      4008            0.0000000000
     29374      4144  TIP3      H2             41.2541486725       27.9211109299       15.0253822900  TIP3      4008            0.0000000000
     29375      4145  TIP3      OH2            52.4214825001       30.6727573475       12.2564842602  TIP3      4009            0.0000000000
     29376      4145  TIP3      H1             52.1547242131       29.9658772934       12.8616756495  TIP3      4009            0.0000000000
     29377      4145  TIP3      H2             52.8298995261       31.3206300200       12.8601013067  TIP3      4009            0.0000000000
     29378      4146  TIP3      OH2            42.1364264740       32.6219982748       12.5953230487  TIP3      4010            0.0000000000
     29379      4146  TIP3      H1             41.9177960356       31.6732046922       12.6499068334  TIP3      4010            0.0000000000
     29380      4146  TIP3      H2             43.1125220722       32.5435219615       12.5173038904  TIP3      4010            0.0000000000
     29381      4147  TIP3      OH2            38.9757506256       25.2862917951        9.2217696546  TIP3      4011            0.0000000000
     29382      4147  TIP3      H1             38.6184824733       26.1885074391        9.0805627998  TIP3      4011            0.0000000000
     29383      4147  TIP3      H2             38.1592271278       24.7730013689        9.1102841815  TIP3      4011            0.0000000000
     29384      4148  TIP3      OH2            38.9244363281       27.6541933074       11.5865538660  TIP3      4012            0.0000000000
     29385      4148  TIP3      H1             39.2409090778       26.7297227170       11.7515824342  TIP3      4012            0.0000000000
     29386      4148  TIP3      H2             39.6628963909       28.0913604182       11.1528085109  TIP3      4012            0.0000000000
     29387      4149  TIP3      OH2            49.7894245921       36.0453480966       11.7953890177  TIP3      4013            0.0000000000
     29388      4149  TIP3      H1             50.4020277616       35.4972587813       11.2515656148  TIP3      4013            0.0000000000
     29389      4149  TIP3      H2             49.4438851360       35.3448696049       12.3642733475  TIP3      4013            0.0000000000
     29390      4150  TIP3      OH2            46.8568463432       30.6648274748       14.5016114747  TIP3      4014            0.0000000000
     29391      4150  TIP3      H1             47.2396755255       30.2969806961       13.6982720546  TIP3      4014            0.0000000000
     29392      4150  TIP3      H2             47.6748042847       30.8739030343       15.0064665658  TIP3      4014            0.0000000000
     29393      4151  TIP3      OH2            55.6478121403       22.0009873305       14.0107423524  TIP3      4015            0.0000000000
     29394      4151  TIP3      H1             55.8522010134       22.3369222360       14.9021464686  TIP3      4015            0.0000000000
     29395      4151  TIP3      H2             56.4788320748       22.2317901695       13.5466606033  TIP3      4015            0.0000000000
     29396      4152  TIP3      OH2            50.8063228648       24.7937498250       14.6165588653  TIP3      4016            0.0000000000
     29397      4152  TIP3      H1             50.9611685652       23.9028282314       14.9780974820  TIP3      4016            0.0000000000
     29398      4152  TIP3      H2             50.7307454264       24.5807406186       13.6649109136  TIP3      4016            0.0000000000
     29399      4153  TIP3      OH2            43.1212237965       21.8906821158       11.9198237496  TIP3      4017            0.0000000000
     29400      4153  TIP3      H1             43.5624068600       22.6087052675       11.4360940237  TIP3      4017            0.0000000000
     29401      4153  TIP3      H2             43.1070525271       21.1921694156       11.2360103213  TIP3      4017            0.0000000000
     29402      4154  TIP3      OH2            51.1523363439       22.8292728972       10.1237603230  TIP3      4018            0.0000000000
     29403      4154  TIP3      H1             51.6179440148       22.4652980652       10.9032727510  TIP3      4018            0.0000000000
     29404      4154  TIP3      H2             51.8234799173       23.4541357963        9.7954853759  TIP3      4018            0.0000000000
     29405      4155  TIP3      OH2            39.8406264012       25.2067046391       12.1376574107  TIP3      4019            0.0000000000
     29406      4155  TIP3      H1             40.4592998553       24.9184681789       12.8356574576  TIP3      4019            0.0000000000
     29407      4155  TIP3      H2             40.0963729381       24.6208802554       11.4041634261  TIP3      4019            0.0000000000
     29408      4156  TIP3      OH2            44.7201438646       27.0864283986       11.7511167816  TIP3      4020            0.0000000000
     29409      4156  TIP3      H1             45.4996600225       26.5688286724       11.4897893997  TIP3      4020            0.0000000000
     29410      4156  TIP3      H2             44.3902359133       26.5563358245       12.4937546756  TIP3      4020            0.0000000000
     29411      4157  TIP3      OH2            55.9159743928       23.1638611095       16.7248336339  TIP3      4021            0.0000000000
     29412      4157  TIP3      H1             55.4769841080       24.0213015923       16.5061788247  TIP3      4021            0.0000000000
     29413      4157  TIP3      H2             56.3105047829       23.3642368862       17.5811177747  TIP3      4021            0.0000000000
     29414      4158  TIP3      OH2            42.8636569979       21.7693296260       15.2541840468  TIP3      4022            0.0000000000
     29415      4158  TIP3      H1             42.5652514593       22.2675867873       14.4685228339  TIP3      4022            0.0000000000
     29416      4158  TIP3      H2             42.0986413953       21.8744116470       15.8435928733  TIP3      4022            0.0000000000
     29417      4159  TIP3      OH2            49.2456947515       30.9343688444        8.9494046222  TIP3      4023            0.0000000000
     29418      4159  TIP3      H1             49.0309594214       31.0194257399        8.0013147344  TIP3      4023            0.0000000000
     29419      4159  TIP3      H2             48.8906707581       31.7823227619        9.2975018091  TIP3      4023            0.0000000000
     29420      4160  TIP3      OH2            44.5461801732       29.6237521858       15.3932483182  TIP3      4024            0.0000000000
     29421      4160  TIP3      H1             44.0688554437       30.3527068357       15.8485116454  TIP3      4024            0.0000000000
     29422      4160  TIP3      H2             45.3328543765       30.0932759311       15.0303195510  TIP3      4024            0.0000000000
     29423      4161  TIP3      OH2            53.2957939053       22.8910286962       12.4757648602  TIP3      4025            0.0000000000
     29424      4161  TIP3      H1             53.9999831664       22.2541938419       12.2835206630  TIP3      4025            0.0000000000
     29425      4161  TIP3      H2             53.7390669927       23.4313566065       13.1711124552  TIP3      4025            0.0000000000
     29426      4162  TIP3      OH2            41.7890619713       23.7855056545       13.3301481283  TIP3      4026            0.0000000000
     29427      4162  TIP3      H1             42.4674134136       24.3851194048       13.7110287932  TIP3      4026            0.0000000000
     29428      4162  TIP3      H2             42.3006635419       23.2671215324       12.6748198552  TIP3      4026            0.0000000000
     29429      4163  TIP3      OH2            43.2205520732       31.6445396771       16.5077993498  TIP3      4027            0.0000000000
     29430      4163  TIP3      H1             42.9203228023       32.0825790538       15.6950766737  TIP3      4027            0.0000000000
     29431      4163  TIP3      H2             42.4013213369       31.6284400828       17.0622160972  TIP3      4027            0.0000000000
     29432      4164  TIP3      OH2            39.1693305816       30.6453178166        7.2749609804  TIP3      4028            0.0000000000
     29433      4164  TIP3      H1             39.1053345507       31.0749586847        6.4010923545  TIP3      4028            0.0000000000
     29434      4164  TIP3      H2             39.2435762996       31.4356678190        7.8666472396  TIP3      4028            0.0000000000
     29435      4165  TIP3      OH2            53.0193612197       32.6762890020       14.1543184877  TIP3      4029            0.0000000000
     29436      4165  TIP3      H1             52.0670814244       32.7113696869       14.3999519869  TIP3      4029            0.0000000000
     29437      4165  TIP3      H2             53.0464254011       33.5551720746       13.7179213519  TIP3      4029            0.0000000000
     29438      4166  TIP3      OH2            53.0359739760       21.0066713539       15.1529958006  TIP3      4030            0.0000000000
     29439      4166  TIP3      H1             52.2106503460       21.2709224770       14.6853024753  TIP3      4030            0.0000000000
     29440      4166  TIP3      H2             53.6964480748       21.2918752712       14.4986737753  TIP3      4030            0.0000000000
     29441      4167  TIP3      OH2            45.8692266849       18.3920192997       13.1896237952  TIP3      4031            0.0000000000
     29442      4167  TIP3      H1             45.4803844942       17.5226009533       13.4348503397  TIP3      4031            0.0000000000
     29443      4167  TIP3      H2             45.0588635809       18.9541978928       13.3076485020  TIP3      4031            0.0000000000
     29444      4168  TIP3      OH2            51.4166105341       34.4809588239       10.3558927578  TIP3      4032            0.0000000000
     29445      4168  TIP3      H1             51.7195853353       33.6254717798        9.9614971089  TIP3      4032            0.0000000000
     29446      4168  TIP3      H2             52.2362683302       35.0372608517       10.2970766327  TIP3      4032            0.0000000000
     29447      4169  TIP3      OH2            52.4238679658       32.2684158337        9.2500645047  TIP3      4033            0.0000000000
     29448      4169  TIP3      H1             52.3674961767       31.6421190766        8.5031782447  TIP3      4033            0.0000000000
     29449      4169  TIP3      H2             52.4021066978       31.6678379499       10.0199897241  TIP3      4033            0.0000000000
     29450      4170  TIP3      OH2            54.1438221946       31.1703592408       17.9821684793  TIP3      4034            0.0000000000
     29451      4170  TIP3      H1             54.3061758095       30.4129130931       17.3778161074  TIP3      4034            0.0000000000
     29452      4170  TIP3      H2             54.3410607203       31.9095068794       17.3625193913  TIP3      4034            0.0000000000
     29453      4171  TIP3      OH2            48.5068300957       27.6565581272        7.2762381363  TIP3      4035            0.0000000000
     29454      4171  TIP3      H1             47.8397927571       28.3787998585        7.3273391783  TIP3      4035            0.0000000000
     29455      4171  TIP3      H2             49.3257817680       28.1512531249        7.0794172347  TIP3      4035            0.0000000000
     29456      4172  TIP3      OH2            48.5668321077       27.0104305419        4.4608613765  TIP3      4036            0.0000000000
     29457      4172  TIP3      H1             48.7088866954       27.3236515279        5.3733309789  TIP3      4036            0.0000000000
     29458      4172  TIP3      H2             48.9413749558       26.1242394938        4.5073674030  TIP3      4036            0.0000000000
     29459      4173  TIP3      OH2            56.0968809541       27.5617298233       15.8359296235  TIP3      4037            0.0000000000
     29460      4173  TIP3      H1             55.3665733393       28.2106820257       15.8654445272  TIP3      4037            0.0000000000
     29461      4173  TIP3      H2             56.6549866775       27.9484184781       15.1288903832  TIP3      4037            0.0000000000
     29462      4174  TIP3      OH2            52.6311252810       28.2113864061        8.7082703192  TIP3      4038            0.0000000000
     29463      4174  TIP3      H1             51.8280429246       28.3833713389        9.2573541714  TIP3      4038            0.0000000000
     29464      4174  TIP3      H2             53.1078990809       27.5808908286        9.2938967034  TIP3      4038            0.0000000000
     29465      4175  TIP3      OH2            52.0817357001       26.4273051318       17.8711604539  TIP3      4039            0.0000000000
     29466      4175  TIP3      H1             52.1711962791       27.2580522439       18.3800566550  TIP3      4039            0.0000000000
     29467      4175  TIP3      H2             51.4255514029       26.6701184951       17.1938775914  TIP3      4039            0.0000000000
     29468      4176  TIP3      OH2            43.3756015131       28.9866940452       10.2712906775  TIP3      4040            0.0000000000
     29469      4176  TIP3      H1             43.7919501259       29.7480495961        9.8266253900  TIP3      4040            0.0000000000
     29470      4176  TIP3      H2             44.1406823806       28.6638287566       10.7886309812  TIP3      4040            0.0000000000
     29471      4177  TIP3      OH2            44.8953442208       31.8626121242       12.8545341598  TIP3      4041            0.0000000000
     29472      4177  TIP3      H1             45.1085309081       31.4021054922       12.0316541241  TIP3      4041            0.0000000000
     29473      4177  TIP3      H2             45.6211096066       31.5707033805       13.4409026696  TIP3      4041            0.0000000000
     29474      4178  TIP3      OH2            43.3799077746       27.6378168581       14.1157050115  TIP3      4042            0.0000000000
     29475      4178  TIP3      H1             43.9863158284       28.0846094557       13.5032150778  TIP3      4042            0.0000000000
     29476      4178  TIP3      H2             43.6050304353       28.1591913165       14.9223125332  TIP3      4042            0.0000000000
     29477      4179  TIP3      OH2            50.4406686902       33.0418380692       14.7081015924  TIP3      4043            0.0000000000
     29478      4179  TIP3      H1             50.1887090605       33.6766350402       15.4026510217  TIP3      4043            0.0000000000
     29479      4179  TIP3      H2             50.2398519418       32.1737270416       15.1180574519  TIP3      4043            0.0000000000
     29480      4180  TIP3      OH2            45.0392729721       32.1357067417       18.4928165904  TIP3      4044            0.0000000000
     29481      4180  TIP3      H1             44.3272997769       32.5439306604       19.0261876731  TIP3      4044            0.0000000000
     29482      4180  TIP3      H2             44.4980186333       31.9152121835       17.7047844307  TIP3      4044            0.0000000000
     29483      4181  TIP3      OH2            51.1749136098       27.6090653682        6.5309000662  TIP3      4045            0.0000000000
     29484      4181  TIP3      H1             51.7667534997       27.8952483625        7.2596664200  TIP3      4045            0.0000000000
     29485      4181  TIP3      H2             51.6263263993       28.0234822796        5.7704469013  TIP3      4045            0.0000000000
     29486      4182  TIP3      OH2            41.7226308257       28.1272642981       17.4710715364  TIP3      4046            0.0000000000
     29487      4182  TIP3      H1             41.8791577919       28.8358019303       18.1109910965  TIP3      4046            0.0000000000
     29488      4182  TIP3      H2             40.8806638301       27.7543082391       17.8083043859  TIP3      4046            0.0000000000
     29489      4183  TIP3      OH2            47.7207065257       33.1690469632        9.3623242601  TIP3      4047            0.0000000000
     29490      4183  TIP3      H1             48.2324803798       33.7884918403        9.9027782451  TIP3      4047            0.0000000000
     29491      4183  TIP3      H2             47.5926381579       33.6818456993        8.5411386876  TIP3      4047            0.0000000000
     29492      4184  TIP3      OH2            43.0361214870       33.5616619224       19.6653874528  TIP3      4048            0.0000000000
     29493      4184  TIP3      H1             43.2707018196       34.1404859195       18.9013768434  TIP3      4048            0.0000000000
     29494      4184  TIP3      H2             42.0747233831       33.5061446133       19.5448521690  TIP3      4048            0.0000000000
     29495      4185  TIP3      OH2            54.9707938496       18.9190320493        6.5616897041  TIP3      4049            0.0000000000
     29496      4185  TIP3      H1             54.0135960861       18.9329169795        6.3239376052  TIP3      4049            0.0000000000
     29497      4185  TIP3      H2             55.2665525906       19.7224075875        6.0955995972  TIP3      4049            0.0000000000
     29498      4186  TIP3      OH2            42.5089906762       27.3731994531        7.2226368364  TIP3      4050            0.0000000000
     29499      4186  TIP3      H1             42.1595920120       28.3012335579        7.1372673954  TIP3      4050            0.0000000000
     29500      4186  TIP3      H2             42.0769467024       26.9522236549        6.4620006882  TIP3      4050            0.0000000000
     29501      4187  TIP3      OH2            55.7173985034       33.6086751659        4.6010605558  TIP3      4051            0.0000000000
     29502      4187  TIP3      H1             55.9215976983       34.5630428417        4.5538925102  TIP3      4051            0.0000000000
     29503      4187  TIP3      H2             56.5864812434       33.2081563466        4.4374743773  TIP3      4051            0.0000000000
     29504      4188  TIP3      OH2            38.8069851094       30.2522995586       16.9877586496  TIP3      4052            0.0000000000
     29505      4188  TIP3      H1             38.2970870972       30.3058820339       16.1658268241  TIP3      4052            0.0000000000
     29506      4188  TIP3      H2             39.0819021931       29.3108053321       16.9382194483  TIP3      4052            0.0000000000
     29507      4189  TIP3      OH2            39.0115146782       32.8421564062       13.5016668333  TIP3      4053            0.0000000000
     29508      4189  TIP3      H1             39.8949173888       32.5613750497       13.2212003369  TIP3      4053            0.0000000000
     29509      4189  TIP3      H2             39.2277140023       33.5040678290       14.1829059113  TIP3      4053            0.0000000000
     29510      4190  TIP3      OH2            56.6709519466       33.5186205913       19.5753858301  TIP3      4054            0.0000000000
     29511      4190  TIP3      H1             56.4384033166       32.6260282457       19.2862893944  TIP3      4054            0.0000000000
     29512      4190  TIP3      H2             55.8770719657       33.7116238960       20.1197955986  TIP3      4054            0.0000000000
     29513      4191  TIP3      OH2            47.6148483304       33.1008046412       18.0573320919  TIP3      4055            0.0000000000
     29514      4191  TIP3      H1             47.7717123634       33.7761991917       18.7454454397  TIP3      4055            0.0000000000
     29515      4191  TIP3      H2             46.7026544198       32.7981344886       18.2527290988  TIP3      4055            0.0000000000
     29516      4192  TIP3      OH2            48.0992065710       36.6329997360        7.6283590760  TIP3      4056            0.0000000000
     29517      4192  TIP3      H1             48.0591858741       36.9560028570        6.7049611795  TIP3      4056            0.0000000000
     29518      4192  TIP3      H2             48.1028171624       37.4625272523        8.1420167729  TIP3      4056            0.0000000000
     29519      4193  TIP3      OH2            41.7806445704       35.3886142299        9.8597776703  TIP3      4057            0.0000000000
     29520      4193  TIP3      H1             42.3078402510       35.5589396936       10.6776149436  TIP3      4057            0.0000000000
     29521      4193  TIP3      H2             40.9859562935       35.0067285924       10.2683986226  TIP3      4057            0.0000000000
     29522      4194  TIP3      OH2            50.9882662519       35.8268999376        4.6353383236  TIP3      4058            0.0000000000
     29523      4194  TIP3      H1             51.6475808460       35.2295485086        4.2160395302  TIP3      4058            0.0000000000
     29524      4194  TIP3      H2             51.2480715314       35.7281222219        5.5648839436  TIP3      4058            0.0000000000
     29525      4195  TIP3      OH2            50.9442316102       36.1990769159        7.6282888480  TIP3      4059            0.0000000000
     29526      4195  TIP3      H1             49.9655386951       36.1888628461        7.6615506677  TIP3      4059            0.0000000000
     29527      4195  TIP3      H2             51.1864939114       35.6500627359        8.3985091268  TIP3      4059            0.0000000000
     29528      4196  TIP3      OH2            53.2938171708       24.6980737471       19.9940483053  TIP3      4060            0.0000000000
     29529      4196  TIP3      H1             52.9839705205       25.1767540596       19.1938298867  TIP3      4060            0.0000000000
     29530      4196  TIP3      H2             53.3738272422       23.8079956217       19.6216160458  TIP3      4060            0.0000000000
     29531      4197  TIP3      OH2            40.9921490513       31.5191264682       18.0174758863  TIP3      4061            0.0000000000
     29532      4197  TIP3      H1             41.1774249771       30.9291194032       18.7949279484  TIP3      4061            0.0000000000
     29533      4197  TIP3      H2             40.2633541241       31.0377436131       17.5643239488  TIP3      4061            0.0000000000
     29534      4198  TIP3      OH2            43.6510484115       19.6495677394       13.8047873417  TIP3      4062            0.0000000000
     29535      4198  TIP3      H1             42.7517283860       19.7259091807       13.4189601613  TIP3      4062            0.0000000000
     29536      4198  TIP3      H2             43.6087014844       20.4103465993       14.4213545722  TIP3      4062            0.0000000000
     29537      4199  TIP3      OH2            48.5526631888       19.6063278724       16.8986546673  TIP3      4063            0.0000000000
     29538      4199  TIP3      H1             48.8547817475       19.0484173211       17.6551493324  TIP3      4063            0.0000000000
     29539      4199  TIP3      H2             47.5741460843       19.6824876660       17.0451216141  TIP3      4063            0.0000000000
     29540      4200  TIP3      OH2            51.4518198390       23.6049408696       17.9926636673  TIP3      4064            0.0000000000
     29541      4200  TIP3      H1             51.0263266124       23.1218772132       18.7386852355  TIP3      4064            0.0000000000
     29542      4200  TIP3      H2             51.1307613158       24.5097500554       18.1101831314  TIP3      4064            0.0000000000
     29543      4201  TIP3      OH2            52.5010844127       28.7555679186        4.4049239172  TIP3      4065            0.0000000000
     29544      4201  TIP3      H1             52.3670618890       28.9352661356        3.4674931113  TIP3      4065            0.0000000000
     29545      4201  TIP3      H2             53.2296985465       29.3639757420        4.6166344587  TIP3      4065            0.0000000000
     29546      4202  TIP3      OH2            48.1405407667       22.4474280713        4.5362672964  TIP3      4066            0.0000000000
     29547      4202  TIP3      H1             47.7405906744       22.3828717983        5.4239085325  TIP3      4066            0.0000000000
     29548      4202  TIP3      H2             47.8756312368       21.6039774281        4.1549464860  TIP3      4066            0.0000000000
     29549      4203  TIP3      OH2            43.6336928811       25.0953098461       14.8032394341  TIP3      4067            0.0000000000
     29550      4203  TIP3      H1             42.9110780082       24.9329401588       15.4534655637  TIP3      4067            0.0000000000
     29551      4203  TIP3      H2             43.5525089019       26.0716081054       14.7101325813  TIP3      4067            0.0000000000
     29552      4204  TIP3      OH2            43.6044424386       24.0958202077       10.3169995292  TIP3      4068            0.0000000000
     29553      4204  TIP3      H1             42.7813276253       23.5915159221       10.0962925103  TIP3      4068            0.0000000000
     29554      4204  TIP3      H2             44.0946183594       24.0429281536        9.4679983337  TIP3      4068            0.0000000000
     29555      4205  TIP3      OH2            49.4387807427       25.7034610913        8.8506587513  TIP3      4069            0.0000000000
     29556      4205  TIP3      H1             49.0710458025       26.4015078057        8.2572216850  TIP3      4069            0.0000000000
     29557      4205  TIP3      H2             50.1390316924       25.3326848044        8.2748445953  TIP3      4069            0.0000000000
     29558      4206  TIP3      OH2            48.0422335077       26.3539553362       20.5754029708  TIP3      4070            0.0000000000
     29559      4206  TIP3      H1             47.6758897032       25.4540930945       20.7199826716  TIP3      4070            0.0000000000
     29560      4206  TIP3      H2             48.9808246140       26.1992331568       20.7911110528  TIP3      4070            0.0000000000
     29561      4207  TIP3      OH2            50.4994506992       25.2588004843       11.7654688496  TIP3      4071            0.0000000000
     29562      4207  TIP3      H1             50.2633324607       26.1192807747       11.3715629594  TIP3      4071            0.0000000000
     29563      4207  TIP3      H2             50.4206028031       24.6788504559       10.9861217725  TIP3      4071            0.0000000000
     29564      4208  TIP3      OH2            41.3081896588       24.7364866819       16.2230295412  TIP3      4072            0.0000000000
     29565      4208  TIP3      H1             41.5163150205       25.1773818721       17.0666505622  TIP3      4072            0.0000000000
     29566      4208  TIP3      H2             40.8732924930       23.9126736504       16.5147923923  TIP3      4072            0.0000000000
     29567      4209  TIP3      OH2            44.7834746050       22.7949858618        4.0380392674  TIP3      4073            0.0000000000
     29568      4209  TIP3      H1             44.4855481391       22.3527719972        4.8561687754  TIP3      4073            0.0000000000
     29569      4209  TIP3      H2             44.3339811282       23.6530540572        4.0848091042  TIP3      4073            0.0000000000
     29570      4210  TIP3      OH2            38.1326525161       21.9599211668       11.2175105317  TIP3      4074            0.0000000000
     29571      4210  TIP3      H1             38.7914030929       22.1620278226       11.9088582397  TIP3      4074            0.0000000000
     29572      4210  TIP3      H2             38.5410940510       22.2651224611       10.3998652616  TIP3      4074            0.0000000000
     29573      4211  TIP3      OH2            39.5022790791       22.7710695805        6.1421705432  TIP3      4075            0.0000000000
     29574      4211  TIP3      H1             39.8257607544       23.1397020672        5.2976843448  TIP3      4075            0.0000000000
     29575      4211  TIP3      H2             38.7852054754       23.4029011136        6.3502510433  TIP3      4075            0.0000000000
     29576      4212  TIP3      OH2            49.1199224815       26.5654707081       15.7968965527  TIP3      4076            0.0000000000
     29577      4212  TIP3      H1             49.8218008409       25.9738807745       15.4225132697  TIP3      4076            0.0000000000
     29578      4212  TIP3      H2             48.7324050659       26.0039767767       16.5099261478  TIP3      4076            0.0000000000
     29579      4213  TIP3      OH2            46.7756451918       22.3312256677       10.9168381177  TIP3      4077            0.0000000000
     29580      4213  TIP3      H1             46.0156653785       22.8093397383       11.2739595500  TIP3      4077            0.0000000000
     29581      4213  TIP3      H2             47.0556864876       21.7811186894       11.6802795432  TIP3      4077            0.0000000000
     29582      4214  TIP3      OH2            41.0058390217       23.5088904858        9.6502911989  TIP3      4078            0.0000000000
     29583      4214  TIP3      H1             40.3771909260       24.2099142852        9.3703953304  TIP3      4078            0.0000000000
     29584      4214  TIP3      H2             40.7659632171       22.7853910941        9.0337591308  TIP3      4078            0.0000000000
     29585      4215  TIP3      OH2            44.4576445849       24.6423658962        7.6683242193  TIP3      4079            0.0000000000
     29586      4215  TIP3      H1             45.4304276100       24.5549335439        7.6484200748  TIP3      4079            0.0000000000
     29587      4215  TIP3      H2             44.2424075887       25.0112182656        6.7886906762  TIP3      4079            0.0000000000
     29588      4216  TIP3      OH2            50.7472655012       21.7717144477       14.0009760762  TIP3      4080            0.0000000000
     29589      4216  TIP3      H1             49.9445100994       21.6196984782       14.5294568525  TIP3      4080            0.0000000000
     29590      4216  TIP3      H2             50.5945029571       21.2805507088       13.1746931778  TIP3      4080            0.0000000000
     29591      4217  TIP3      OH2            43.5215704080       25.5532847384        4.6020311522  TIP3      4081            0.0000000000
     29592      4217  TIP3      H1             43.1373325146       25.5452249196        3.7076740654  TIP3      4081            0.0000000000
     29593      4217  TIP3      H2             44.4588829312       25.7850794860        4.3907028211  TIP3      4081            0.0000000000
     29594      4218  TIP3      OH2            53.7211068090       37.3788906446       20.5386899055  TIP3      4082            0.0000000000
     29595      4218  TIP3      H1             54.1998810689       37.4758075609       19.6908486588  TIP3      4082            0.0000000000
     29596      4218  TIP3      H2             53.8055423530       38.2970194288       20.8661335246  TIP3      4082            0.0000000000
     29597      4219  TIP3      OH2            41.4787370045       29.8486901495       19.9947148548  TIP3      4083            0.0000000000
     29598      4219  TIP3      H1             42.2175525391       29.7011315964       20.6064473559  TIP3      4083            0.0000000000
     29599      4219  TIP3      H2             40.7091202696       29.5327134403       20.5093228600  TIP3      4083            0.0000000000
     29600      4220  TIP3      OH2            47.0601385527       25.0231906574       12.4699804088  TIP3      4084            0.0000000000
     29601      4220  TIP3      H1             47.9855241936       24.8434466320       12.2333686268  TIP3      4084            0.0000000000
     29602      4220  TIP3      H2             46.9139746877       24.3995384907       13.2039471600  TIP3      4084            0.0000000000
     29603      4221  TIP3      OH2            42.4324017425       20.9130052448        9.2277840166  TIP3      4085            0.0000000000
     29604      4221  TIP3      H1             41.7452689860       20.3733152218        9.6798412804  TIP3      4085            0.0000000000
     29605      4221  TIP3      H2             42.8758833050       20.2543879950        8.6805597063  TIP3      4085            0.0000000000
     29606      4222  TIP3      OH2            45.9996047848       23.9486585084       15.5114623744  TIP3      4086            0.0000000000
     29607      4222  TIP3      H1             45.1948980324       24.4705160628       15.2929863557  TIP3      4086            0.0000000000
     29608      4222  TIP3      H2             46.6423827309       24.6447279330       15.6961887626  TIP3      4086            0.0000000000
     29609      4223  TIP3      OH2            46.7204985465       29.6204572482        7.3652621825  TIP3      4087            0.0000000000
     29610      4223  TIP3      H1             45.9915839929       29.1311081662        6.9072314594  TIP3      4087            0.0000000000
     29611      4223  TIP3      H2             46.2130657362       30.0267596414        8.0901458745  TIP3      4087            0.0000000000
     29612      4224  TIP3      OH2            54.2442445393       29.5477390590       15.8728058087  TIP3      4088            0.0000000000
     29613      4224  TIP3      H1             54.7051999015       30.1277802175       15.2171915194  TIP3      4088            0.0000000000
     29614      4224  TIP3      H2             53.4253307551       29.3569223902       15.3873182173  TIP3      4088            0.0000000000
     29615      4225  TIP3      OH2            50.6376876861       22.8316691411        5.7531150227  TIP3      4089            0.0000000000
     29616      4225  TIP3      H1             49.8387248200       22.8705831867        5.1937637734  TIP3      4089            0.0000000000
     29617      4225  TIP3      H2             50.8754576801       23.7726047058        5.8899814265  TIP3      4089            0.0000000000
     29618      4226  TIP3      OH2            47.4200231465       30.0037116829       17.8673424835  TIP3      4090            0.0000000000
     29619      4226  TIP3      H1             47.7046931503       30.1020887438       18.7916104823  TIP3      4090            0.0000000000
     29620      4226  TIP3      H2             47.2862042986       30.9371599640       17.6307805969  TIP3      4090            0.0000000000
     29621      4227  TIP3      OH2            51.4173378108       24.9367092471        7.1568712633  TIP3      4091            0.0000000000
     29622      4227  TIP3      H1             52.1989822404       24.6502318994        7.6603640195  TIP3      4091            0.0000000000
     29623      4227  TIP3      H2             51.5916326114       25.8781801237        7.0003674914  TIP3      4091            0.0000000000
     29624      4228  TIP3      OH2            41.7335435564       29.4999189118       12.5964242677  TIP3      4092            0.0000000000
     29625      4228  TIP3      H1             42.0833507580       29.2657219328       11.7256302024  TIP3      4092            0.0000000000
     29626      4228  TIP3      H2             42.0662206517       28.7996857246       13.1862603037  TIP3      4092            0.0000000000
     29627      4229  TIP3      OH2            48.4758223598       31.1143960610        6.0578274733  TIP3      4093            0.0000000000
     29628      4229  TIP3      H1             48.0744590398       31.9863015252        6.2692693442  TIP3      4093            0.0000000000
     29629      4229  TIP3      H2             47.8416531460       30.5031743965        6.4901635892  TIP3      4093            0.0000000000
     29630      4230  TIP3      OH2            38.9338557617       27.5803662209       17.5869987876  TIP3      4094            0.0000000000
     29631      4230  TIP3      H1             38.6788915733       27.0780577007       18.3814777406  TIP3      4094            0.0000000000
     29632      4230  TIP3      H2             38.2446976248       27.3335296960       16.9334857692  TIP3      4094            0.0000000000
     29633      4231  TIP3      OH2            45.3916308007       27.4520680464       19.8321993489  TIP3      4095            0.0000000000
     29634      4231  TIP3      H1             45.3351127777       27.2519943528       18.8873469655  TIP3      4095            0.0000000000
     29635      4231  TIP3      H2             46.3172462044       27.2135241906       20.0303006413  TIP3      4095            0.0000000000
     29636      4232  TIP3      OH2            50.8509269485       32.5908911600       18.3351910571  TIP3      4096            0.0000000000
     29637      4232  TIP3      H1             50.1165013778       32.8235631182       17.7488572415  TIP3      4096            0.0000000000
     29638      4232  TIP3      H2             50.5612085335       33.0426225433       19.1571788004  TIP3      4096            0.0000000000
     29639      4233  TIP3      OH2            56.2769839043       24.6695199737        6.6610977312  TIP3      4097            0.0000000000
     29640      4233  TIP3      H1             55.6959421094       24.6818271920        5.8662030106  TIP3      4097            0.0000000000
     29641      4233  TIP3      H2             56.5359826523       25.6028706421        6.6804042230  TIP3      4097            0.0000000000
     29642      4234  TIP3      OH2            56.4257284238       30.6082954556       19.3334436961  TIP3      4098            0.0000000000
     29643      4234  TIP3      H1             55.5114506168       30.8033013331       19.0202832680  TIP3      4098            0.0000000000
     29644      4234  TIP3      H2             56.9574054853       30.6409745027       18.5036757424  TIP3      4098            0.0000000000
     29645      4235  TIP3      OH2            55.2978519579       33.3620962912        7.1873231213  TIP3      4099            0.0000000000
     29646      4235  TIP3      H1             54.6301169765       32.6978465142        7.3774506860  TIP3      4099            0.0000000000
     29647      4235  TIP3      H2             55.4264623019       33.2912769617        6.2095220592  TIP3      4099            0.0000000000
     29648      4236  TIP3      OH2            51.7221855447       28.4900267335       13.9690599570  TIP3      4100            0.0000000000
     29649      4236  TIP3      H1             50.8494771432       28.1707094551       13.6609320718  TIP3      4100            0.0000000000
     29650      4236  TIP3      H2             52.3118696791       27.8851388967       13.4646101236  TIP3      4100            0.0000000000
     29651      4237  TIP3      OH2            43.9417219754       32.7955167162       10.0803180439  TIP3      4101            0.0000000000
     29652      4237  TIP3      H1             44.1964303741       33.7194331618        9.8873102543  TIP3      4101            0.0000000000
     29653      4237  TIP3      H2             43.0789982257       32.7403544246        9.6464333831  TIP3      4101            0.0000000000
     29654      4238  TIP3      OH2            39.7843673249       27.7821927403        5.6176580328  TIP3      4102            0.0000000000
     29655      4238  TIP3      H1             40.0118622593       28.7296454538        5.6519709827  TIP3      4102            0.0000000000
     29656      4238  TIP3      H2             38.8630638947       27.8146376206        5.2996479575  TIP3      4102            0.0000000000
     29657      4239  TIP3      OH2            45.4994318294       30.7028642195        9.5672556151  TIP3      4103            0.0000000000
     29658      4239  TIP3      H1             44.9531683432       31.5241618069        9.6520305987  TIP3      4103            0.0000000000
     29659      4239  TIP3      H2             46.3914134404       31.0747775079        9.6408660074  TIP3      4103            0.0000000000
     29660      4240  TIP3      OH2            46.1625650178       34.9081479813       16.4115101992  TIP3      4104            0.0000000000
     29661      4240  TIP3      H1             46.9202823241       35.4686580754       16.1579172586  TIP3      4104            0.0000000000
     29662      4240  TIP3      H2             46.6174839134       34.3221804172       17.0513648297  TIP3      4104            0.0000000000
     29663      4241  TIP3      OH2            44.5290215182       35.2946755831        9.1481578678  TIP3      4105            0.0000000000
     29664      4241  TIP3      H1             43.5572226339       35.3917983031        9.1979863887  TIP3      4105            0.0000000000
     29665      4241  TIP3      H2             44.7906858840       36.1489811846        9.5607435924  TIP3      4105            0.0000000000
     29666      4242  TIP3      OH2            49.4166833722       30.6092901711       15.6123320719  TIP3      4106            0.0000000000
     29667      4242  TIP3      H1             49.0126646945       30.2730110187       16.4373532936  TIP3      4106            0.0000000000
     29668      4242  TIP3      H2             49.8869324295       29.8118262792       15.3125400447  TIP3      4106            0.0000000000
     29669      4243  TIP3      OH2            51.7207274990       31.9937509012        5.0483932359  TIP3      4107            0.0000000000
     29670      4243  TIP3      H1             51.9439895177       31.6890765419        5.9535025113  TIP3      4107            0.0000000000
     29671      4243  TIP3      H2             50.9724257918       31.4025285677        4.8893239546  TIP3      4107            0.0000000000
     29672      4244  TIP3      OH2            52.7202856717       35.2792188909       18.0646368302  TIP3      4108            0.0000000000
     29673      4244  TIP3      H1             51.8680488934       34.8387563251       17.8952827199  TIP3      4108            0.0000000000
     29674      4244  TIP3      H2             52.7563055404       35.8683225534       17.2878821459  TIP3      4108            0.0000000000
     29675      4245  TIP3      OH2            56.3644653605       36.2999656867        5.0250266658  TIP3      4109            0.0000000000
     29676      4245  TIP3      H1             56.7944919662       36.8913789426        4.3915936535  TIP3      4109            0.0000000000
     29677      4245  TIP3      H2             55.6479369924       36.8746514243        5.3812025369  TIP3      4109            0.0000000000
     29678      4246  TIP3      OH2            40.5720258806       22.2395960842       17.3411751223  TIP3      4110            0.0000000000
     29679      4246  TIP3      H1             39.9580690613       22.6441417459       17.9614608221  TIP3      4110            0.0000000000
     29680      4246  TIP3      H2             40.5217505095       21.3161854135       17.6479137780  TIP3      4110            0.0000000000
     29681      4247  TIP3      OH2            52.6566944192       30.4750663283        7.1572224236  TIP3      4111            0.0000000000
     29682      4247  TIP3      H1             52.5403254020       29.6639196180        7.6918163545  TIP3      4111            0.0000000000
     29683      4247  TIP3      H2             53.6282577549       30.4326250414        7.0380937190  TIP3      4111            0.0000000000
     29684      4248  TIP3      OH2            40.2668924214       34.4357270066       15.6762732651  TIP3      4112            0.0000000000
     29685      4248  TIP3      H1             40.8079793784       33.7101771801       16.0263924125  TIP3      4112            0.0000000000
     29686      4248  TIP3      H2             40.4427675193       35.1229746548       16.3369949231  TIP3      4112            0.0000000000
     29687      4249  TIP3      OH2            44.6319593691       32.4050056331        5.5045776968  TIP3      4113            0.0000000000
     29688      4249  TIP3      H1             45.1644219842       31.8570774419        6.0970034660  TIP3      4113            0.0000000000
     29689      4249  TIP3      H2             44.8838959009       33.3137749480        5.8056306685  TIP3      4113            0.0000000000
     29690      4250  TIP3      OH2            41.7482054054       29.8748731714        6.5255669843  TIP3      4114            0.0000000000
     29691      4250  TIP3      H1             40.9189884625       30.0325839979        7.0139814827  TIP3      4114            0.0000000000
     29692      4250  TIP3      H2             41.7516133821       30.6425665220        5.9195231512  TIP3      4114            0.0000000000
     29693      4251  TIP3      OH2            49.0124584265       22.1480288276       16.6562640315  TIP3      4115            0.0000000000
     29694      4251  TIP3      H1             49.5608669473       22.4156830585       17.4020563870  TIP3      4115            0.0000000000
     29695      4251  TIP3      H2             48.8748645688       21.1949989262       16.8496855126  TIP3      4115            0.0000000000
     29696      4252  TIP3      OH2            49.7476393718       21.8418978467        8.0844732278  TIP3      4116            0.0000000000
     29697      4252  TIP3      H1             50.1216516536       22.1957526547        7.2509003970  TIP3      4116            0.0000000000
     29698      4252  TIP3      H2             50.3373166170       22.2510873496        8.7583296746  TIP3      4116            0.0000000000
     29699      4253  TIP3      OH2            47.5564357688       33.5636577005        6.5853562749  TIP3      4117            0.0000000000
     29700      4253  TIP3      H1             46.8558653669       34.2474595547        6.5585517248  TIP3      4117            0.0000000000
     29701      4253  TIP3      H2             48.2160076119       33.9374503154        5.9805457831  TIP3      4117            0.0000000000
     29702      4254  TIP3      OH2            47.1194196308       23.7625197301        8.5978859174  TIP3      4118            0.0000000000
     29703      4254  TIP3      H1             47.9207198118       24.3102120646        8.7273222328  TIP3      4118            0.0000000000
     29704      4254  TIP3      H2             47.1254067284       23.1572959873        9.3727207875  TIP3      4118            0.0000000000
     29705      4255  TIP3      OH2            47.8112516365       25.1806291504       17.7246542875  TIP3      4119            0.0000000000
     29706      4255  TIP3      H1             47.7628883565       25.5094662820       18.6419200790  TIP3      4119            0.0000000000
     29707      4255  TIP3      H2             47.3533531721       24.3220093949       17.7790019296  TIP3      4119            0.0000000000
     29708      4256  TIP3      OH2            48.1289855334       20.2503551966        9.4623709389  TIP3      4120            0.0000000000
     29709      4256  TIP3      H1             47.6095521775       20.8826663514       10.0108786639  TIP3      4120            0.0000000000
     29710      4256  TIP3      H2             48.8284159437       20.8660269756        9.1271134624  TIP3      4120            0.0000000000
     29711      4257  TIP3      OH2            45.1776974099       34.8065901092        6.5536051986  TIP3      4121            0.0000000000
     29712      4257  TIP3      H1             45.2579834556       35.6553630731        6.0667207963  TIP3      4121            0.0000000000
     29713      4257  TIP3      H2             44.8369206269       35.1091371371        7.4284562655  TIP3      4121            0.0000000000
     29714      4258  TIP3      OH2            43.6409400412       21.5494333455        6.3477936762  TIP3      4122            0.0000000000
     29715      4258  TIP3      H1             43.3723841007       22.2111738838        6.9938911203  TIP3      4122            0.0000000000
     29716      4258  TIP3      H2             44.4565966583       21.1948461303        6.7400238510  TIP3      4122            0.0000000000
     29717      4259  TIP3      OH2            53.7165724406       22.2802541004       18.3808559341  TIP3      4123            0.0000000000
     29718      4259  TIP3      H1             52.8152285018       22.4817625856       18.0501960662  TIP3      4123            0.0000000000
     29719      4259  TIP3      H2             54.2408351389       22.5342664257       17.5968078542  TIP3      4123            0.0000000000
     29720      4260  TIP3      OH2            52.8942551707       26.4220129731       12.5744291760  TIP3      4124            0.0000000000
     29721      4260  TIP3      H1             52.0941483451       25.8709093057       12.6527393706  TIP3      4124            0.0000000000
     29722      4260  TIP3      H2             53.5449755771       25.8917936165       13.0869972990  TIP3      4124            0.0000000000
     29723      4261  TIP3      OH2            41.9553303466       32.0520409729        4.8023979036  TIP3      4125            0.0000000000
     29724      4261  TIP3      H1             42.7886049734       32.3430204356        5.2214362248  TIP3      4125            0.0000000000
     29725      4261  TIP3      H2             42.3020815560       31.5388019884        4.0514133985  TIP3      4125            0.0000000000
     29726      4262  TIP3      OH2            39.8054363477       25.0005309390        3.9638836923  TIP3      4126            0.0000000000
     29727      4262  TIP3      H1             40.4226223064       25.6519366675        4.3265853935  TIP3      4126            0.0000000000
     29728      4262  TIP3      H2             38.9914289697       25.5187252296        3.9284247814  TIP3      4126            0.0000000000
     29729      4263  TIP3      OH2            53.3007609667       35.3616891958       13.7828760630  TIP3      4127            0.0000000000
     29730      4263  TIP3      H1             53.1414877867       35.9292299203       13.0109328161  TIP3      4127            0.0000000000
     29731      4263  TIP3      H2             54.2751004431       35.2785662300       13.7149584173  TIP3      4127            0.0000000000
     29732      4264  TIP3      OH2            41.0916499092       19.4213792003       13.1195175919  TIP3      4128            0.0000000000
     29733      4264  TIP3      H1             41.0340237249       19.1368816388       12.1779135919  TIP3      4128            0.0000000000
     29734      4264  TIP3      H2             40.6348631436       18.6593132870       13.5272088291  TIP3      4128            0.0000000000
     29735      4265  TIP3      OH2            39.4136019265       33.0930160180        8.3860720716  TIP3      4129            0.0000000000
     29736      4265  TIP3      H1             38.9563430047       33.6396519345        9.0389366324  TIP3      4129            0.0000000000
     29737      4265  TIP3      H2             39.7301140179       33.8212448453        7.7965818843  TIP3      4129            0.0000000000
     29738      4266  TIP3      OH2            38.9458218766       36.8018415180       19.9965850585  TIP3      4130            0.0000000000
     29739      4266  TIP3      H1             39.7385365111       36.3557998739       19.6657887291  TIP3      4130            0.0000000000
     29740      4266  TIP3      H2             38.2454191148       36.2059486360       19.6848345848  TIP3      4130            0.0000000000
     29741      4267  TIP3      OH2            43.9429407278       34.9585769587       21.9501693616  TIP3      4131            0.0000000000
     29742      4267  TIP3      H1             44.9118424425       34.9768139587       21.9938894580  TIP3      4131            0.0000000000
     29743      4267  TIP3      H2             43.7659654007       34.3180936690       21.2253924918  TIP3      4131            0.0000000000
     29744      4268  TIP3      OH2            50.3225939593       34.0865616346       20.6025099728  TIP3      4132            0.0000000000
     29745      4268  TIP3      H1             49.9824366803       33.2192048447       20.9427033054  TIP3      4132            0.0000000000
     29746      4268  TIP3      H2             51.0399863932       34.3005116716       21.2415627734  TIP3      4132            0.0000000000
     29747      4269  TIP3      OH2            52.8020330403       34.0981878236        3.5308536938  TIP3      4133            0.0000000000
     29748      4269  TIP3      H1             52.4541655576       33.3289815536        4.0363530810  TIP3      4133            0.0000000000
     29749      4269  TIP3      H2             53.7539848391       33.8872244379        3.5483528805  TIP3      4133            0.0000000000
     29750      4270  TIP3      OH2            38.7034831477       29.7627254931       21.2099355350  TIP3      4134            0.0000000000
     29751      4270  TIP3      H1             38.7222007925       28.8416387418       20.9004222557  TIP3      4134            0.0000000000
     29752      4270  TIP3      H2             38.2792299697       30.2584842546       20.4682572740  TIP3      4134            0.0000000000
     29753      4271  TIP3      OH2            43.3253006358       30.3227471528        3.0842304919  TIP3      4135            0.0000000000
     29754      4271  TIP3      H1             43.8360682736       30.2679573031        3.9090225086  TIP3      4135            0.0000000000
     29755      4271  TIP3      H2             43.9423940886       29.8525294879        2.4826540801  TIP3      4135            0.0000000000
     29756      4272  TIP3      OH2            45.9053767608       30.1959801579       20.4100129244  TIP3      4136            0.0000000000
     29757      4272  TIP3      H1             45.6595288312       30.8060233018       19.6892552579  TIP3      4136            0.0000000000
     29758      4272  TIP3      H2             45.4567169453       29.3487700635       20.2111402594  TIP3      4136            0.0000000000
     29759      4273  TIP3      OH2            51.4878109269       29.8734966275       18.2335775854  TIP3      4137            0.0000000000
     29760      4273  TIP3      H1             52.2881420912       30.3934201748       18.0225972738  TIP3      4137            0.0000000000
     29761      4273  TIP3      H2             50.9684440353       30.6462364851       18.5352056726  TIP3      4137            0.0000000000
     29762      4274  TIP3      OH2            40.0838276399       27.2276845081       20.6895869815  TIP3      4138            0.0000000000
     29763      4274  TIP3      H1             40.4344113768       26.3379397104       20.5641005859  TIP3      4138            0.0000000000
     29764      4274  TIP3      H2             40.2735273447       27.3438955071       21.6381280603  TIP3      4138            0.0000000000
     29765      4275  TIP3      OH2            44.7409609347       28.2813353394        6.1507256866  TIP3      4139            0.0000000000
     29766      4275  TIP3      H1             43.9122823928       27.8779835733        6.4846154257  TIP3      4139            0.0000000000
     29767      4275  TIP3      H2             44.8694223138       27.7846542759        5.3236474443  TIP3      4139            0.0000000000
     29768      4276  TIP3      OH2            43.3871313283       26.0437915151       17.4869014164  TIP3      4140            0.0000000000
     29769      4276  TIP3      H1             42.8821855994       26.8633191985       17.6604063881  TIP3      4140            0.0000000000
     29770      4276  TIP3      H2             44.2228866422       26.4092638758       17.1389922590  TIP3      4140            0.0000000000
     29771      4277  TIP3      OH2            45.9233406864       26.4616961467        3.8661911670  TIP3      4141            0.0000000000
     29772      4277  TIP3      H1             46.2024143679       26.8193501127        3.0083532312  TIP3      4141            0.0000000000
     29773      4277  TIP3      H2             46.7983745868       26.3744704114        4.3021951678  TIP3      4141            0.0000000000
     29774      4278  TIP3      OH2            49.4812402963       29.1750980291       21.1871039410  TIP3      4142            0.0000000000
     29775      4278  TIP3      H1             49.7146539559       28.5046790279       20.5309866379  TIP3      4142            0.0000000000
     29776      4278  TIP3      H2             49.1116973340       28.6087588297       21.9000915654  TIP3      4142            0.0000000000
     29777      4279  TIP3      OH2            55.8042164847       29.1466953171        3.0367667049  TIP3      4143            0.0000000000
     29778      4279  TIP3      H1             55.2238851391       29.3706143815        2.2903628617  TIP3      4143            0.0000000000
     29779      4279  TIP3      H2             56.3933507921       29.9226917273        3.0836633871  TIP3      4143            0.0000000000
     29780      4280  TIP3      OH2            44.6138378876       23.8869805770       18.6223951979  TIP3      4144            0.0000000000
     29781      4280  TIP3      H1             44.8319149558       23.1638287871       17.9946024517  TIP3      4144            0.0000000000
     29782      4280  TIP3      H2             44.2159977157       24.5851048829       18.0537655314  TIP3      4144            0.0000000000
     29783      4281  TIP3      OH2            45.1478504926       21.8925102444       16.8404656265  TIP3      4145            0.0000000000
     29784      4281  TIP3      H1             45.7224699924       22.4703267203       16.2849481871  TIP3      4145            0.0000000000
     29785      4281  TIP3      H2             44.3190530731       21.9513344121       16.3212950469  TIP3      4145            0.0000000000
     29786      4282  TIP3      OH2            45.9144788340       27.6359472994       16.6151564658  TIP3      4146            0.0000000000
     29787      4282  TIP3      H1             46.8384455397       27.9360530153       16.6330257924  TIP3      4146            0.0000000000
     29788      4282  TIP3      H2             45.4677621592       28.4490015120       16.2966186115  TIP3      4146            0.0000000000
     29789      4283  TIP3      OH2            50.5713227592       24.8999245247       21.4618793709  TIP3      4147            0.0000000000
     29790      4283  TIP3      H1             50.8297836186       24.0192141885       21.7692958356  TIP3      4147            0.0000000000
     29791      4283  TIP3      H2             51.2828010692       25.1004570618       20.8345294067  TIP3      4147            0.0000000000
     29792      4284  TIP3      OH2            52.3679979902       28.1719132639       20.2324512614  TIP3      4148            0.0000000000
     29793      4284  TIP3      H1             51.9576235773       28.8285586244       19.6387014351  TIP3      4148            0.0000000000
     29794      4284  TIP3      H2             53.3033698580       28.2925115320       20.0171798119  TIP3      4148            0.0000000000
     29795      4285  TIP3      OH2            42.7083003214       24.6681633017       20.7156719244  TIP3      4149            0.0000000000
     29796      4285  TIP3      H1             41.9437918327       24.1106759626       20.4852390554  TIP3      4149            0.0000000000
     29797      4285  TIP3      H2             43.3378553191       24.4252906813       20.0103006070  TIP3      4149            0.0000000000
     29798      4286  TIP3      OH2            45.8175233018       19.3664411743       16.7671974958  TIP3      4150            0.0000000000
     29799      4286  TIP3      H1             45.4988873035       20.2989833291       16.7927401108  TIP3      4150            0.0000000000
     29800      4286  TIP3      H2             44.9757709817       18.9126239230       16.5794578006  TIP3      4150            0.0000000000
     29801      4287  TIP3      OH2            46.6147880349       23.9422825418       20.5645279201  TIP3      4151            0.0000000000
     29802      4287  TIP3      H1             46.1410123816       23.4840191521       21.2803309340  TIP3      4151            0.0000000000
     29803      4287  TIP3      H2             45.9551152484       23.8520781659       19.8431017884  TIP3      4151            0.0000000000
     29804      4288  TIP3      OH2            49.7864404352       22.5467909909       19.9495703611  TIP3      4152            0.0000000000
     29805      4288  TIP3      H1             48.8320882811       22.5839680598       20.1016674148  TIP3      4152            0.0000000000
     29806      4288  TIP3      H2             50.1068178217       22.2341945383       20.8284209572  TIP3      4152            0.0000000000
     29807      4289  TIP3      OH2            50.8333979955       21.2879788283       22.1477889927  TIP3      4153            0.0000000000
     29808      4289  TIP3      H1             50.5747872585       20.3966366116       21.8279054908  TIP3      4153            0.0000000000
     29809      4289  TIP3      H2             51.3309450360       21.0539884320       22.9488803424  TIP3      4153            0.0000000000
     29810      4290  TIP3      OH2            40.8608024739       22.7323976282       20.5473726931  TIP3      4154            0.0000000000
     29811      4290  TIP3      H1             40.8217597820       21.8361840165       20.2056505474  TIP3      4154            0.0000000000
     29812      4290  TIP3      H2             41.1467495441       22.5867576967       21.4760184946  TIP3      4154            0.0000000000
     29813      4291  TIP3      OH2            45.7096387682       19.1226208762       19.4163604942  TIP3      4155            0.0000000000
     29814      4291  TIP3      H1             46.1450070706       18.2698550481       19.6062306630  TIP3      4155            0.0000000000
     29815      4291  TIP3      H2             45.8084395835       19.1728890421       18.4409006422  TIP3      4155            0.0000000000
     29816      4292  TIP3      OH2            45.2347690656       21.0873790845       21.1952958304  TIP3      4156            0.0000000000
     29817      4292  TIP3      H1             45.4501425162       20.3293404325       20.5999799783  TIP3      4156            0.0000000000
     29818      4292  TIP3      H2             44.5775432143       20.7087703566       21.7928886892  TIP3      4156            0.0000000000
     29819      4293  TIP3      OH2            45.7246257595       36.8012484466        4.7286988492  TIP3      4157            0.0000000000
     29820      4293  TIP3      H1             46.3900073277       37.3852766707        5.1259225408  TIP3      4157            0.0000000000
     29821      4293  TIP3      H2             45.7780910456       37.0893005728        3.7993066317  TIP3      4157            0.0000000000
     29822      4294  TIP3      OH2            39.1159196279       30.7642141939        4.3635643553  TIP3      4158            0.0000000000
     29823      4294  TIP3      H1             39.7355779663       31.4703822404        4.1155989195  TIP3      4158            0.0000000000
     29824      4294  TIP3      H2             38.2936267559       31.0888415803        3.9676854034  TIP3      4158            0.0000000000
     29825      4295  TIP3      OH2            38.0905443938       36.6205070814        9.5139656604  TIP3      4159            0.0000000000
     29826      4295  TIP3      H1             37.3529124836       36.0797078805        9.1507599179  TIP3      4159            0.0000000000
     29827      4295  TIP3      H2             38.4415231556       36.0566521006       10.2402672879  TIP3      4159            0.0000000000
     29828      4296  TIP3      OH2            39.0051634957       35.0485414256       11.4721510491  TIP3      4160            0.0000000000
     29829      4296  TIP3      H1             38.4051852472       34.6178472257       12.1049323164  TIP3      4160            0.0000000000
     29830      4296  TIP3      H2             39.5390459083       35.5571961745       12.1245105397  TIP3      4160            0.0000000000
     29831      4297  TIP3      OH2            56.0256527167       35.7840636924       13.8275089524  TIP3      4161            0.0000000000
     29832      4297  TIP3      H1             56.6717247129       35.8905678130       14.5384530476  TIP3      4161            0.0000000000
     29833      4297  TIP3      H2             55.7384137098       36.7006808707       13.6699422517  TIP3      4161            0.0000000000
     29834      4298  TIP3      OH2            55.9885152373       35.5739366694       17.1774924557  TIP3      4162            0.0000000000
     29835      4298  TIP3      H1             55.6733076729       34.8048849984       16.6552466111  TIP3      4162            0.0000000000
     29836      4298  TIP3      H2             56.4444950641       35.1435082913       17.9235518253  TIP3      4162            0.0000000000
     29837      4299  TIP3      OH2            54.9235485418       31.3830918891       22.4141846839  TIP3      4163            0.0000000000
     29838      4299  TIP3      H1             54.0980219747       31.5660923096       22.9184771474  TIP3      4163            0.0000000000
     29839      4299  TIP3      H2             55.3639057591       32.2552425607       22.4952629973  TIP3      4163            0.0000000000
     29840      4300  TIP3      OH2            55.2990122702       29.9813527291        7.0365913915  TIP3      4164            0.0000000000
     29841      4300  TIP3      H1             56.1185796959       30.4303575226        7.3393566906  TIP3      4164            0.0000000000
     29842      4300  TIP3      H2             55.2018385614       29.2771915156        7.7065850197  TIP3      4164            0.0000000000
     29843      4301  TIP3      OH2            56.1688631726       27.7579166511        9.4877978088  TIP3      4165            0.0000000000
     29844      4301  TIP3      H1             55.3612815514       27.3462939053        9.8564180659  TIP3      4165            0.0000000000
     29845      4301  TIP3      H2             56.7141286799       27.9009396809       10.2939773933  TIP3      4165            0.0000000000
     29846      4302  TIP3      OH2            55.7476293808       30.5128039471       13.9271786575  TIP3      4166            0.0000000000
     29847      4302  TIP3      H1             56.4856466858       29.8664020888       13.8827196254  TIP3      4166            0.0000000000
     29848      4302  TIP3      H2             56.1142317088       31.2744302705       13.4428304193  TIP3      4166            0.0000000000
     29849      4303  TIP3      OH2            54.5547427455       33.3369253508       16.2750067946  TIP3      4167            0.0000000000
     29850      4303  TIP3      H1             53.8609876477       33.8557763241       16.7133535341  TIP3      4167            0.0000000000
     29851      4303  TIP3      H2             54.1268269160       33.0652430157       15.4290553392  TIP3      4167            0.0000000000
     29852      4304  TIP3      OH2            56.4147788252       27.8635972483        5.5890702723  TIP3      4168            0.0000000000
     29853      4304  TIP3      H1             55.8727761441       28.0358764673        4.7991567016  TIP3      4168            0.0000000000
     29854      4304  TIP3      H2             56.3532618339       28.7383528064        6.0162927848  TIP3      4168            0.0000000000
     29855      4305  TIP3      OH2            55.1088756707       24.6787133816        4.1166894497  TIP3      4169            0.0000000000
     29856      4305  TIP3      H1             54.9790835135       24.9565964169        3.1891284446  TIP3      4169            0.0000000000
     29857      4305  TIP3      H2             54.5162803511       23.9249716752        4.1942361640  TIP3      4169            0.0000000000
     29858      4306  TIP3      OH2            53.9986974844       26.2392407205       10.0971299271  TIP3      4170            0.0000000000
     29859      4306  TIP3      H1             53.7087992451       25.3216370671        9.9463646930  TIP3      4170            0.0000000000
     29860      4306  TIP3      H2             53.6950247317       26.3645973291       11.0263786106  TIP3      4170            0.0000000000
     29861      4307  TIP3      OH2            38.7555856586       28.8658658497       14.0315039674  TIP3      4171            0.0000000000
     29862      4307  TIP3      H1             38.6524523489       28.5510323761       13.1050285023  TIP3      4171            0.0000000000
     29863      4307  TIP3      H2             39.5891731709       28.3850046511       14.2417359700  TIP3      4171            0.0000000000
     29864      4308  TIP3      OH2            55.0463688712       28.0662471259       19.2841039735  TIP3      4172            0.0000000000
     29865      4308  TIP3      H1             55.4053835287       27.1696208797       19.4848197578  TIP3      4172            0.0000000000
     29866      4308  TIP3      H2             55.7226024541       28.4733124575       18.7162704724  TIP3      4172            0.0000000000
     29867      4309  TIP3      OH2            56.0361252624       25.7061456917       20.1190195150  TIP3      4173            0.0000000000
     29868      4309  TIP3      H1             55.2456317916       25.1865732893       20.3547917904  TIP3      4173            0.0000000000
     29869      4309  TIP3      H2             56.6938512437       24.9836822083       19.9860220226  TIP3      4173            0.0000000000
     29870      4310  TIP3      OH2            53.3167979645       23.8505101076        8.8009748664  TIP3      4174            0.0000000000
     29871      4310  TIP3      H1             53.2779258971       22.8676664688        8.8619843432  TIP3      4174            0.0000000000
     29872      4310  TIP3      H2             54.1054061215       23.9412369213        8.2503214620  TIP3      4174            0.0000000000
     29873      4311  TIP3      OH2            54.5692335324       24.8155422093       14.0151613949  TIP3      4175            0.0000000000
     29874      4311  TIP3      H1             55.5495964378       24.8879180085       14.0126977313  TIP3      4175            0.0000000000
     29875      4311  TIP3      H2             54.4304996294       24.9259999290       14.9765321727  TIP3      4175            0.0000000000
     29876      4312  TIP3      OH2            54.1832525304       25.2883994454       16.6309537346  TIP3      4176            0.0000000000
     29877      4312  TIP3      H1             53.2192797358       25.3993579017       16.7823968666  TIP3      4176            0.0000000000
     29878      4312  TIP3      H2             54.5243206676       26.1768634335       16.8340083327  TIP3      4176            0.0000000000
     29879      4313  TIP3      OH2            38.4884067669       23.8562896663       20.1733471980  TIP3      4177            0.0000000000
     29880      4313  TIP3      H1             39.4318193544       23.6280381175       20.2884392737  TIP3      4177            0.0000000000
     29881      4313  TIP3      H2             38.0852289881       22.9608740261       20.1124352002  TIP3      4177            0.0000000000
     29882      4314  TIP3      OH2            56.3431951144       19.7644800160       21.6523186046  TIP3      4178            0.0000000000
     29883      4314  TIP3      H1             57.1536276887       19.3488307906       21.3210453324  TIP3      4178            0.0000000000
     29884      4314  TIP3      H2             56.3305047440       20.6388382385       21.2369180118  TIP3      4178            0.0000000000
     29885      4315  TIP3      OH2            53.4842472263       21.0891030674        8.6493586201  TIP3      4179            0.0000000000
     29886      4315  TIP3      H1             54.2843638309       20.8588258233        9.1653832577  TIP3      4179            0.0000000000
     29887      4315  TIP3      H2             53.3068846692       20.2471644337        8.1994971567  TIP3      4179            0.0000000000
     29888      4316  TIP3      OH2            39.9695659756       21.7210583582       13.8282664277  TIP3      4180            0.0000000000
     29889      4316  TIP3      H1             40.5196837265       20.9650828931       13.4950024834  TIP3      4180            0.0000000000
     29890      4316  TIP3      H2             40.5752467702       22.4845221459       13.7702002717  TIP3      4180            0.0000000000
     29891      4317  TIP3      OH2            37.9877973773       24.9627894597       14.2973424515  TIP3      4181            0.0000000000
     29892      4317  TIP3      H1             38.2640633325       24.1952881205       13.7676298426  TIP3      4181            0.0000000000
     29893      4317  TIP3      H2             38.6754339817       25.6089160812       14.0567611998  TIP3      4181            0.0000000000
     29894      4318  TIP3      OH2            55.6456411010       21.7894122852       20.0105890300  TIP3      4182            0.0000000000
     29895      4318  TIP3      H1             54.8033556194       22.0169541681       19.5498134851  TIP3      4182            0.0000000000
     29896      4318  TIP3      H2             55.8091739889       20.9919429220       19.4840622311  TIP3      4182            0.0000000000
     29897      4319  TIP3      OH2            55.9043786507       21.6349558871        4.9269614056  TIP3      4183            0.0000000000
     29898      4319  TIP3      H1             55.5957702160       21.5462441573        4.0145152963  TIP3      4183            0.0000000000
     29899      4319  TIP3      H2             56.6969139330       22.1796343549        4.7794033014  TIP3      4183            0.0000000000
     29900      4320  TIP3      OH2            38.5783708044       21.0155894438        8.0343420634  TIP3      4184            0.0000000000
     29901      4320  TIP3      H1             37.6643436488       21.0610799018        7.7282285245  TIP3      4184            0.0000000000
     29902      4320  TIP3      H2             39.0084893022       21.4694851684        7.2770193172  TIP3      4184            0.0000000000
     29903      4321  TIP3      OH2            53.3891641126       36.2321875011       10.2352372619  TIP3      4185            0.0000000000
     29904      4321  TIP3      H1             54.0421933453       36.1545379407        9.5025995534  TIP3      4185            0.0000000000
     29905      4321  TIP3      H2             53.7750762936       36.8924230508       10.8434773916  TIP3      4185            0.0000000000
     29906      4322  TIP3      OH2            38.3416366557       19.7748358551       16.1871882525  TIP3      4186            0.0000000000
     29907      4322  TIP3      H1             38.0193671427       19.2658366865       16.9559298052  TIP3      4186            0.0000000000
     29908      4322  TIP3      H2             38.3100954483       20.6886641968       16.5065329747  TIP3      4186            0.0000000000
     29909      4323  TIP3      OH2            39.8592712513       33.2468321809       20.5264908437  TIP3      4187            0.0000000000
     29910      4323  TIP3      H1             39.1809156869       33.7470120106       20.0251628802  TIP3      4187            0.0000000000
     29911      4323  TIP3      H2             39.8407300673       32.4023471879       20.0516585113  TIP3      4187            0.0000000000
     29912      4324  TIP3      OH2            43.4899822888       34.8070944559       17.2424298017  TIP3      4188            0.0000000000
     29913      4324  TIP3      H1             43.3690250597       35.6082092904       16.6889068455  TIP3      4188            0.0000000000
     29914      4324  TIP3      H2             44.4290293166       34.6132321395       17.0352955656  TIP3      4188            0.0000000000
     29915      4325  TIP3      OH2            47.5646245511       35.8276575180       19.1761557910  TIP3      4189            0.0000000000
     29916      4325  TIP3      H1             47.5662940787       35.4579687159       20.0906665558  TIP3      4189            0.0000000000
     29917      4325  TIP3      H2             48.4730878909       36.1853927369       19.0989839941  TIP3      4189            0.0000000000
     29918      4326  TIP3      OH2            49.8117659269       37.3420290540       18.8437085067  TIP3      4190            0.0000000000
     29919      4326  TIP3      H1             50.6552731621       37.1105840257       18.4217231880  TIP3      4190            0.0000000000
     29920      4326  TIP3      H2             50.0589829757       37.3928720040       19.7886625744  TIP3      4190            0.0000000000
     29921      4327  TIP3      OH2            54.9376930635       19.2773578482       18.1267016175  TIP3      4191            0.0000000000
     29922      4327  TIP3      H1             54.0849572433       19.5276863448       17.7334745930  TIP3      4191            0.0000000000
     29923      4327  TIP3      H2             55.0525947990       18.3647800809       17.7841921007  TIP3      4191            0.0000000000
     29924      4328  TIP3      OH2            40.5995072048       37.8341005072       16.4276718357  TIP3      4192            0.0000000000
     29925      4328  TIP3      H1             39.8760242858       38.0719248912       15.8221392551  TIP3      4192            0.0000000000
     29926      4328  TIP3      H2             40.4976050067       38.5581813051       17.0587038808  TIP3      4192            0.0000000000
     29927      4329  TIP3      OH2            42.9268868043       36.9097389229       15.5343961460  TIP3      4193            0.0000000000
     29928      4329  TIP3      H1             42.0422556324       37.1984447367       15.8706001780  TIP3      4193            0.0000000000
     29929      4329  TIP3      H2             43.0814318729       37.5777087591       14.8406445514  TIP3      4193            0.0000000000
     29930      4330  TIP3      OH2            48.1538317397       36.5163569937       14.7855497270  TIP3      4194            0.0000000000
     29931      4330  TIP3      H1             47.3930312262       36.9169262920       14.3357773453  TIP3      4194            0.0000000000
     29932      4330  TIP3      H2             48.3238268017       37.2074243596       15.4748387383  TIP3      4194            0.0000000000
     29933      4331  TIP3      OH2            50.1763243111       35.2916696913       16.1707223669  TIP3      4195            0.0000000000
     29934      4331  TIP3      H1             49.5665943878       35.6180403337       15.4744648105  TIP3      4195            0.0000000000
     29935      4331  TIP3      H2             50.8764955881       35.9641970922       16.0668478528  TIP3      4195            0.0000000000
     29936      4332  TIP3      OH2            52.3985861459       36.9605033392       15.7654015661  TIP3      4196            0.0000000000
     29937      4332  TIP3      H1             52.6714600423       37.8419866392       15.4388107540  TIP3      4196            0.0000000000
     29938      4332  TIP3      H2             52.7587281609       36.3931885833       15.0508835497  TIP3      4196            0.0000000000
     29939      4333  TIP3      OH2            40.4469540293       35.9864642750       13.5390075712  TIP3      4197            0.0000000000
     29940      4333  TIP3      H1             40.1769721192       35.4629765993       14.3267304879  TIP3      4197            0.0000000000
     29941      4333  TIP3      H2             41.4137553685       35.8370732625       13.5407858291  TIP3      4197            0.0000000000
     29942      4334  TIP3      OH2            42.8995859586       35.4032803361       12.2418720076  TIP3      4198            0.0000000000
     29943      4334  TIP3      H1             42.4188653252       34.5607722183       12.3856202185  TIP3      4198            0.0000000000
     29944      4334  TIP3      H2             43.6737632771       35.2381866760       12.8308125995  TIP3      4198            0.0000000000
     29945      4335  TIP3      OH2            44.7061448678       34.6597736915       14.0081789838  TIP3      4199            0.0000000000
     29946      4335  TIP3      H1             45.2307658076       33.8846087936       13.7546447225  TIP3      4199            0.0000000000
     29947      4335  TIP3      H2             45.0931680365       34.9103262485       14.8677995417  TIP3      4199            0.0000000000
     29948      4336  TIP3      OH2            47.8242174540       20.0885053988       12.3268762109  TIP3      4200            0.0000000000
     29949      4336  TIP3      H1             47.1382778529       19.4571272049       12.6257622115  TIP3      4200            0.0000000000
     29950      4336  TIP3      H2             48.4190871743       19.5148841377       11.8173625874  TIP3      4200            0.0000000000
     29951      4337  TIP3      OH2            53.7252098774       19.0715170007       12.4043593766  TIP3      4201            0.0000000000
     29952      4337  TIP3      H1             54.4396186534       19.5888017720       11.9775143184  TIP3      4201            0.0000000000
     29953      4337  TIP3      H2             52.9498628247       19.3052010125       11.8389443229  TIP3      4201            0.0000000000
     29954      4338  TIP3      OH2            55.4373764978       20.2188206477       10.5965759041  TIP3      4202            0.0000000000
     29955      4338  TIP3      H1             56.0352247821       19.5712874602       10.1657347599  TIP3      4202            0.0000000000
     29956      4338  TIP3      H2             56.0153091671       21.0249712641       10.6146595305  TIP3      4202            0.0000000000
     29957      4339  TIP3      OH2            40.7380178513       18.8563297231       10.4581951731  TIP3      4203            0.0000000000
     29958      4339  TIP3      H1             39.8659006202       18.7949936911       10.0094559935  TIP3      4203            0.0000000000
     29959      4339  TIP3      H2             41.0868973035       17.9661323456       10.2246608613  TIP3      4203            0.0000000000
     29960      4340  TIP3      OH2            39.2942676874       19.1315300716        5.9218916039  TIP3      4204            0.0000000000
     29961      4340  TIP3      H1             39.8605798825       19.8336624382        5.5192317868  TIP3      4204            0.0000000000
     29962      4340  TIP3      H2             39.0328916718       19.5058854407        6.7851424357  TIP3      4204            0.0000000000
     29963      4341  TIP3      OH2            45.4372264710       18.3814876386       10.4072180656  TIP3      4205            0.0000000000
     29964      4341  TIP3      H1             46.2461434772       18.6809215130        9.9543546687  TIP3      4205            0.0000000000
     29965      4341  TIP3      H2             45.6640710422       18.3794160537       11.3601201959  TIP3      4205            0.0000000000
     29966      4342  TIP3      OH2            51.1614202057       19.4584871251       11.1667101905  TIP3      4206            0.0000000000
     29967      4342  TIP3      H1             50.7295714542       19.7333254155       10.3500105271  TIP3      4206            0.0000000000
     29968      4342  TIP3      H2             50.7133733417       18.5952208540       11.3313311030  TIP3      4206            0.0000000000
     29969      4343  TIP3      OH2            52.3529237937       19.0402358953        6.5601100229  TIP3      4207            0.0000000000
     29970      4343  TIP3      H1             51.7364313247       19.7845739672        6.5477195273  TIP3      4207            0.0000000000
     29971      4343  TIP3      H2             51.9340109245       18.4451514739        7.2303945256  TIP3      4207            0.0000000000
     29972      4344  TIP3      OH2            39.5253226338       35.4288308987        6.9889149433  TIP3      4208            0.0000000000
     29973      4344  TIP3      H1             38.6894414059       35.5139553210        6.4882354608  TIP3      4208            0.0000000000
     29974      4344  TIP3      H2             39.8297728516       36.3557965572        6.8960973638  TIP3      4208            0.0000000000
     29975      4345  TIP3      OH2            41.3419501069       20.5347679913        4.5995199142  TIP3      4209            0.0000000000
     29976      4345  TIP3      H1             41.9785562824       19.8371629510        4.3603626761  TIP3      4209            0.0000000000
     29977      4345  TIP3      H2             41.8832673916       21.1052515918        5.1711251515  TIP3      4209            0.0000000000
     29978      4346  TIP3      OH2            46.6528452899       21.5116976380        7.0852157503  TIP3      4210            0.0000000000
     29979      4346  TIP3      H1             47.3658376313       21.0946543761        7.5897565725  TIP3      4210            0.0000000000
     29980      4346  TIP3      H2             46.7053453978       22.4163337750        7.4604077973  TIP3      4210            0.0000000000
     29981      4347  TIP3      OH2            48.4624029403       37.0321808899        4.9627149977  TIP3      4211            0.0000000000
     29982      4347  TIP3      H1             49.4153410852       37.0970124789        4.7436603165  TIP3      4211            0.0000000000
     29983      4347  TIP3      H2             48.2555985303       36.1753369053        4.5609474005  TIP3      4211            0.0000000000
     29984      4348  TIP3      OH2            54.8426607720       35.7713302046        8.1135636187  TIP3      4212            0.0000000000
     29985      4348  TIP3      H1             54.9459921927       34.9154846450        7.6278336034  TIP3      4212            0.0000000000
     29986      4348  TIP3      H2             54.7694551783       36.4040341708        7.3642030543  TIP3      4212            0.0000000000
     29987      4349  TIP3      OH2            40.1695589311       19.8575935610       18.7333079993  TIP3      4213            0.0000000000
     29988      4349  TIP3      H1             39.7217447884       19.2070297270       19.3181658736  TIP3      4213            0.0000000000
     29989      4349  TIP3      H2             41.0995616382       19.7127037887       18.9614439751  TIP3      4213            0.0000000000
     29990      4350  TIP3      OH2            42.5492965942       19.7058917702       21.7870526067  TIP3      4214            0.0000000000
     29991      4350  TIP3      H1             43.2322459308       19.3747199205       21.1756123480  TIP3      4214            0.0000000000
     29992      4350  TIP3      H2             41.9421998114       18.9483316846       21.7643314812  TIP3      4214            0.0000000000
     29993      4351  TIP3      OH2            41.7455973883       36.5880086918        3.9810770171  TIP3      4215            0.0000000000
     29994      4351  TIP3      H1             40.8666819745       36.8931663765        3.6802397979  TIP3      4215            0.0000000000
     29995      4351  TIP3      H2             41.5563639248       35.7565078390        4.4188780299  TIP3      4215            0.0000000000
     29996      4352  TIP3      OH2            50.7123347480       18.6382841633       21.2764853027  TIP3      4216            0.0000000000
     29997      4352  TIP3      H1             50.3835742057       17.7563833496       21.5031256432  TIP3      4216            0.0000000000
     29998      4352  TIP3      H2             51.6752043622       18.4590166202       21.2808540440  TIP3      4216            0.0000000000
     29999      4353  TIP3      OH2            54.3078778039       34.6251745567       20.1700416408  TIP3      4217            0.0000000000
     30000      4353  TIP3      H1             53.6870172121       34.5663693585       19.4066736808  TIP3      4217            0.0000000000
     30001      4353  TIP3      H2             54.3537595182       35.5989304212       20.2585353892  TIP3      4217            0.0000000000
     30002      4354  TIP3      OH2            60.3377883652       27.6941005278       14.5987248606  TIP3      4218            0.0000000000
     30003      4354  TIP3      H1             60.2973454636       26.8167606629       15.0099180400  TIP3      4218            0.0000000000
     30004      4354  TIP3      H2             60.8812899101       28.1921408414       15.2407372499  TIP3      4218            0.0000000000
     30005      4355  TIP3      OH2            61.1013918665       32.6472642817       13.1925251336  TIP3      4219            0.0000000000
     30006      4355  TIP3      H1             60.7642547810       31.7576233966       12.9830453577  TIP3      4219            0.0000000000
     30007      4355  TIP3      H2             62.0611487805       32.4803342876       13.0926467598  TIP3      4219            0.0000000000
     30008      4356  TIP3      OH2            57.5475815471       25.3671466009        9.0419929859  TIP3      4220            0.0000000000
     30009      4356  TIP3      H1             57.1848307318       26.2684418869        9.1451989693  TIP3      4220            0.0000000000
     30010      4356  TIP3      H2             56.8267594662       24.9273600976        8.5667116207  TIP3      4220            0.0000000000
     30011      4357  TIP3      OH2            57.9858467843       27.8200843747       11.4724207005  TIP3      4221            0.0000000000
     30012      4357  TIP3      H1             58.3249846307       26.8986157423       11.5439762396  TIP3      4221            0.0000000000
     30013      4357  TIP3      H2             58.7576109578       28.3251052752       11.1667680595  TIP3      4221            0.0000000000
     30014      4358  TIP3      OH2            65.8075070108       30.3675002613       14.5527639010  TIP3      4222            0.0000000000
     30015      4358  TIP3      H1             66.6163063296       29.8641336189       14.3396430818  TIP3      4222            0.0000000000
     30016      4358  TIP3      H2             66.1055638358       31.2838947051       14.5604170263  TIP3      4222            0.0000000000
     30017      4359  TIP3      OH2            62.3030646733       22.4818455542       11.1701183014  TIP3      4223            0.0000000000
     30018      4359  TIP3      H1             62.5165970090       23.3115438629       10.6752514173  TIP3      4223            0.0000000000
     30019      4359  TIP3      H2             61.8682490562       21.9605436816       10.4582617650  TIP3      4223            0.0000000000
     30020      4360  TIP3      OH2            58.8735632892       25.1370592037       12.0417745091  TIP3      4224            0.0000000000
     30021      4360  TIP3      H1             59.4743262322       24.6541809749       12.6299496329  TIP3      4224            0.0000000000
     30022      4360  TIP3      H2             59.2543050991       24.9294102630       11.1661877632  TIP3      4224            0.0000000000
     30023      4361  TIP3      OH2            63.9422803471       26.6209905001       11.1901131309  TIP3      4225            0.0000000000
     30024      4361  TIP3      H1             64.6712232193       26.0679866919       11.5481110242  TIP3      4225            0.0000000000
     30025      4361  TIP3      H2             63.4121184049       25.8927042477       10.8039039862  TIP3      4225            0.0000000000
     30026      4362  TIP3      OH2            61.2059777842       21.8651599972       15.4886617699  TIP3      4226            0.0000000000
     30027      4362  TIP3      H1             61.0018038873       22.4055130607       14.6923849599  TIP3      4226            0.0000000000
     30028      4362  TIP3      H2             60.6010446960       22.2666770420       16.1416631956  TIP3      4226            0.0000000000
     30029      4363  TIP3      OH2            63.5690879828       29.2377646935       15.4385248866  TIP3      4227            0.0000000000
     30030      4363  TIP3      H1             62.9147808664       29.9265946860       15.6928341633  TIP3      4227            0.0000000000
     30031      4363  TIP3      H2             64.3058029826       29.7752191807       15.0607764467  TIP3      4227            0.0000000000
     30032      4364  TIP3      OH2            60.9663023265       23.5521065481       13.3614566937  TIP3      4228            0.0000000000
     30033      4364  TIP3      H1             61.7522384147       23.9946718751       13.7504127757  TIP3      4228            0.0000000000
     30034      4364  TIP3      H2             61.3449214624       23.2224954782       12.5102772078  TIP3      4228            0.0000000000
     30035      4365  TIP3      OH2            62.0687497254       31.5715123977       15.9294917833  TIP3      4229            0.0000000000
     30036      4365  TIP3      H1             61.7776508774       32.2495144474       15.3046532474  TIP3      4229            0.0000000000
     30037      4365  TIP3      H2             61.3317157001       31.6349714465       16.5823219059  TIP3      4229            0.0000000000
     30038      4366  TIP3      OH2            57.8630851816       30.9869319071        7.0632861264  TIP3      4230            0.0000000000
     30039      4366  TIP3      H1             57.8841886510       31.3650603924        6.1603898417  TIP3      4230            0.0000000000
     30040      4366  TIP3      H2             58.0057495461       31.8025292486        7.6078756849  TIP3      4230            0.0000000000
     30041      4367  TIP3      OH2            64.8434723041       19.4021393194       13.1817540450  TIP3      4231            0.0000000000
     30042      4367  TIP3      H1             64.8418284272       18.5037163135       13.5320098473  TIP3      4231            0.0000000000
     30043      4367  TIP3      H2             63.9428403165       19.7017272464       13.4235008733  TIP3      4231            0.0000000000
     30044      4368  TIP3      OH2            62.3305154394       28.3829153492       10.0837914232  TIP3      4232            0.0000000000
     30045      4368  TIP3      H1             62.2197193330       27.9184323214        9.2380932895  TIP3      4232            0.0000000000
     30046      4368  TIP3      H2             63.0309185148       27.8359738280       10.5148492179  TIP3      4232            0.0000000000
     30047      4369  TIP3      OH2            64.0429992168       32.0759047593       12.8611228700  TIP3      4233            0.0000000000
     30048      4369  TIP3      H1             64.0802968036       31.8489938371       11.9142883548  TIP3      4233            0.0000000000
     30049      4369  TIP3      H2             64.3683750045       31.2673353432       13.3006119186  TIP3      4233            0.0000000000
     30050      4370  TIP3      OH2            63.1246765923       27.0604335670       14.0276087899  TIP3      4234            0.0000000000
     30051      4370  TIP3      H1             63.3129770402       27.1767578491       13.0775401445  TIP3      4234            0.0000000000
     30052      4370  TIP3      H2             63.2918903830       27.9567229896       14.3973264334  TIP3      4234            0.0000000000
     30053      4371  TIP3      OH2            63.8571070154       31.3439775732       18.1886025997  TIP3      4235            0.0000000000
     30054      4371  TIP3      H1             63.4248036014       31.7768492699       18.9573384164  TIP3      4235            0.0000000000
     30055      4371  TIP3      H2             63.2456945821       31.5198063795       17.4387009048  TIP3      4235            0.0000000000
     30056      4372  TIP3      OH2            60.8716760350       28.2333152226       17.2500339896  TIP3      4236            0.0000000000
     30057      4372  TIP3      H1             61.1342398884       28.9831897453       17.8089347136  TIP3      4236            0.0000000000
     30058      4372  TIP3      H2             59.9937749753       28.0404429252       17.6225179703  TIP3      4236            0.0000000000
     30059      4373  TIP3      OH2            62.5673858680       33.0847612435       19.9167711640  TIP3      4237            0.0000000000
     30060      4373  TIP3      H1             62.3156646318       33.4140501593       19.0359744366  TIP3      4237            0.0000000000
     30061      4373  TIP3      H2             61.6667863636       32.9536409606       20.3028179776  TIP3      4237            0.0000000000
     30062      4374  TIP3      OH2            61.5816128101       27.5867673828        7.2831530506  TIP3      4238            0.0000000000
     30063      4374  TIP3      H1             61.0841263220       28.4340432536        7.2668768886  TIP3      4238            0.0000000000
     30064      4374  TIP3      H2             60.9216678977       26.9544589746        7.5948776697  TIP3      4238            0.0000000000
     30065      4375  TIP3      OH2            57.8534534980       30.4926581643       16.9914191153  TIP3      4239            0.0000000000
     30066      4375  TIP3      H1             57.5129067225       30.6495538588       16.0961998439  TIP3      4239            0.0000000000
     30067      4375  TIP3      H2             58.1117824622       29.5444689096       16.9679901423  TIP3      4239            0.0000000000
     30068      4376  TIP3      OH2            58.0078230248       32.8637411146       13.7783624912  TIP3      4240            0.0000000000
     30069      4376  TIP3      H1             58.8643692616       33.0067207642       13.3575799303  TIP3      4240            0.0000000000
     30070      4376  TIP3      H2             58.0944099688       33.4295808155       14.5627863000  TIP3      4240            0.0000000000
     30071      4377  TIP3      OH2            60.6236293256       35.6146929673        9.7020013575  TIP3      4241            0.0000000000
     30072      4377  TIP3      H1             60.7676245970       35.3238158812       10.6366029640  TIP3      4241            0.0000000000
     30073      4377  TIP3      H2             59.7677296074       35.2178757566        9.4618661703  TIP3      4241            0.0000000000
     30074      4378  TIP3      OH2            60.1116235258       31.7202671306       17.7310521604  TIP3      4242            0.0000000000
     30075      4378  TIP3      H1             60.2114515894       31.3281875440       18.6209068752  TIP3      4242            0.0000000000
     30076      4378  TIP3      H2             59.2278902128       31.3510825141       17.5092203714  TIP3      4242            0.0000000000
     30077      4379  TIP3      OH2            62.3577054493       20.0219381820       13.9083768359  TIP3      4243            0.0000000000
     30078      4379  TIP3      H1             61.5318705631       20.1028041642       13.3945101096  TIP3      4243            0.0000000000
     30079      4379  TIP3      H2             62.2071397143       20.7017824127       14.5980128857  TIP3      4243            0.0000000000
     30080      4380  TIP3      OH2            62.6691699484       24.6949830146       15.1458072967  TIP3      4244            0.0000000000
     30081      4380  TIP3      H1             61.7676209497       24.7789943217       15.5257188739  TIP3      4244            0.0000000000
     30082      4380  TIP3      H2             62.7713868320       25.5539113533       14.6667945079  TIP3      4244            0.0000000000
     30083      4381  TIP3      OH2            62.6129514632       24.7172590856        9.9120720333  TIP3      4245            0.0000000000
     30084      4381  TIP3      H1             61.6485164499       24.8885641728        9.8084714709  TIP3      4245            0.0000000000
     30085      4381  TIP3      H2             62.8892148195       24.6796022207        8.9644015455  TIP3      4245            0.0000000000
     30086      4382  TIP3      OH2            60.1740857522       25.0185701912       16.1869704296  TIP3      4246            0.0000000000
     30087      4382  TIP3      H1             60.4922125391       25.5134670851       16.9586884357  TIP3      4246            0.0000000000
     30088      4382  TIP3      H2             59.8264593068       24.2039079028       16.6118081637  TIP3      4246            0.0000000000
     30089      4383  TIP3      OH2            64.0734782568       23.0665780021        4.2228532813  TIP3      4247            0.0000000000
     30090      4383  TIP3      H1             63.5949919122       22.3771611099        4.7262553795  TIP3      4247            0.0000000000
     30091      4383  TIP3      H2             63.4173089421       23.7986397911        4.2779665136  TIP3      4247            0.0000000000
     30092      4384  TIP3      OH2            57.0824243025       22.3501313191       10.8933410723  TIP3      4248            0.0000000000
     30093      4384  TIP3      H1             57.7438468457       22.6331597503       11.5359460472  TIP3      4248            0.0000000000
     30094      4384  TIP3      H2             57.3469869099       22.8126884405       10.0879875671  TIP3      4248            0.0000000000
     30095      4385  TIP3      OH2            58.3220203150       22.7826334070        6.1911233378  TIP3      4249            0.0000000000
     30096      4385  TIP3      H1             58.9388549276       23.1945768730        5.5531709710  TIP3      4249            0.0000000000
     30097      4385  TIP3      H2             57.7322729935       23.5345842746        6.4077763542  TIP3      4249            0.0000000000
     30098      4386  TIP3      OH2            65.0513650035       22.5337485914       10.9914853284  TIP3      4250            0.0000000000
     30099      4386  TIP3      H1             64.1011904237       22.3594638124       11.1556561764  TIP3      4250            0.0000000000
     30100      4386  TIP3      H2             65.2196700997       23.2261484081       11.6760321002  TIP3      4250            0.0000000000
     30101      4387  TIP3      OH2            60.0321760770       24.6465058010        9.4874012106  TIP3      4251            0.0000000000
     30102      4387  TIP3      H1             59.1970786651       25.0350878388        9.1355604605  TIP3      4251            0.0000000000
     30103      4387  TIP3      H2             60.0621820001       23.8099034642        8.9998626550  TIP3      4251            0.0000000000
     30104      4388  TIP3      OH2            63.2965680257       24.8076649480        7.4150151851  TIP3      4252            0.0000000000
     30105      4388  TIP3      H1             64.2468503420       25.0055060406        7.4731671221  TIP3      4252            0.0000000000
     30106      4388  TIP3      H2             63.0830119716       25.0104614115        6.4865402032  TIP3      4252            0.0000000000
     30107      4389  TIP3      OH2            62.4820131410       25.1803755144        4.5906813353  TIP3      4253            0.0000000000
     30108      4389  TIP3      H1             61.5670963557       24.9963548521        4.3007147974  TIP3      4253            0.0000000000
     30109      4389  TIP3      H2             62.6634186978       26.0341999642        4.1739895328  TIP3      4253            0.0000000000
     30110      4390  TIP3      OH2            59.8961161367       29.9838080458       19.7983479467  TIP3      4254            0.0000000000
     30111      4390  TIP3      H1             60.7097165353       29.8439619393       20.3377183206  TIP3      4254            0.0000000000
     30112      4390  TIP3      H2             59.2150793272       30.0899783827       20.4887590539  TIP3      4254            0.0000000000
     30113      4391  TIP3      OH2            65.5961309060       24.8192206263       12.3262706274  TIP3      4255            0.0000000000
     30114      4391  TIP3      H1             66.4982902979       24.9100100399       11.9644257488  TIP3      4255            0.0000000000
     30115      4391  TIP3      H2             65.7821783932       25.1102827326       13.2419518936  TIP3      4255            0.0000000000
     30116      4392  TIP3      OH2            61.1815999986       21.0807320342        9.0907305842  TIP3      4256            0.0000000000
     30117      4392  TIP3      H1             60.5134115981       20.5486206473        9.5726295206  TIP3      4256            0.0000000000
     30118      4392  TIP3      H2             61.6963068582       20.3922314090        8.6415472995  TIP3      4256            0.0000000000
     30119      4393  TIP3      OH2            64.9782119003       23.4054676312       15.4379077557  TIP3      4257            0.0000000000
     30120      4393  TIP3      H1             64.2630984995       24.0605780759       15.2816701495  TIP3      4257            0.0000000000
     30121      4393  TIP3      H2             65.7605638375       23.9560050525       15.2085313189  TIP3      4257            0.0000000000
     30122      4394  TIP3      OH2            65.4116537981       30.3719081522        6.7427199308  TIP3      4258            0.0000000000
     30123      4394  TIP3      H1             64.6850521131       29.8803351129        6.3160345463  TIP3      4258            0.0000000000
     30124      4394  TIP3      H2             65.1614489437       30.2454937318        7.6860570366  TIP3      4258            0.0000000000
     30125      4395  TIP3      OH2            61.1460479525       29.5214781562       12.8034464996  TIP3      4259            0.0000000000
     30126      4395  TIP3      H1             61.5736131149       29.1995597798       11.9929671287  TIP3      4259            0.0000000000
     30127      4395  TIP3      H2             60.9167731124       28.6949099666       13.2819870131  TIP3      4259            0.0000000000
     30128      4396  TIP3      OH2            57.9289586935       27.7647928026       18.0167584507  TIP3      4260            0.0000000000
     30129      4396  TIP3      H1             57.7399546918       27.1762661732       18.7671221185  TIP3      4260            0.0000000000
     30130      4396  TIP3      H2             57.3742060065       27.4178655932       17.2860720199  TIP3      4260            0.0000000000
     30131      4397  TIP3      OH2            64.8241095096       26.8911816649       19.4846236468  TIP3      4261            0.0000000000
     30132      4397  TIP3      H1             64.1657121820       26.8169494396       18.7591437040  TIP3      4261            0.0000000000
     30133      4397  TIP3      H2             65.4864699457       26.2342478445       19.2229107754  TIP3      4261            0.0000000000
     30134      4398  TIP3      OH2            62.8565181210       32.7548056506       10.0491663847  TIP3      4262            0.0000000000
     30135      4398  TIP3      H1             63.4907762501       33.4399003711        9.7971427930  TIP3      4262            0.0000000000
     30136      4398  TIP3      H2             62.0182572328       33.1686475514        9.8024799016  TIP3      4262            0.0000000000
     30137      4399  TIP3      OH2            58.9711194690       27.4240753437        4.2756656231  TIP3      4263            0.0000000000
     30138      4399  TIP3      H1             59.3324576973       27.9770441388        4.9977787379  TIP3      4263            0.0000000000
     30139      4399  TIP3      H2             58.0166129759       27.4354295578        4.4757780697  TIP3      4263            0.0000000000
     30140      4400  TIP3      OH2            64.7010796194       30.3129650438        9.3429217272  TIP3      4264            0.0000000000
     30141      4400  TIP3      H1             64.1618689642       31.1283497502        9.3796656137  TIP3      4264            0.0000000000
     30142      4400  TIP3      H2             64.1306070568       29.6929126367        9.8292118044  TIP3      4264            0.0000000000
     30143      4401  TIP3      OH2            65.2296225012       34.7129229645       16.8048341912  TIP3      4265            0.0000000000
     30144      4401  TIP3      H1             65.9966481807       35.2928011715       16.8160870653  TIP3      4265            0.0000000000
     30145      4401  TIP3      H2             65.5004284386       34.0264744421       17.4248126480  TIP3      4265            0.0000000000
     30146      4402  TIP3      OH2            63.2983429400       36.1524406070        8.9613313926  TIP3      4266            0.0000000000
     30147      4402  TIP3      H1             62.3737725201       36.0175859981        9.2703763800  TIP3      4266            0.0000000000
     30148      4402  TIP3      H2             63.5783502960       36.8883347561        9.5495824911  TIP3      4266            0.0000000000
     30149      4403  TIP3      OH2            59.5150042529       22.7027435951       17.4924882468  TIP3      4267            0.0000000000
     30150      4403  TIP3      H1             58.6597020251       23.1491933686       17.5920504285  TIP3      4267            0.0000000000
     30151      4403  TIP3      H2             59.3442607566       21.8487522012       17.9113428283  TIP3      4267            0.0000000000
     30152      4404  TIP3      OH2            59.3324149339       34.4298903485       15.7378370306  TIP3      4268            0.0000000000
     30153      4404  TIP3      H1             59.8603673050       33.6508746843       15.9609571064  TIP3      4268            0.0000000000
     30154      4404  TIP3      H2             59.6991718371       35.0977148416       16.3424559044  TIP3      4268            0.0000000000
     30155      4405  TIP3      OH2            63.3654997908       32.6982799170        5.2330537125  TIP3      4269            0.0000000000
     30156      4405  TIP3      H1             63.9489775563       32.1412396969        5.7669762107  TIP3      4269            0.0000000000
     30157      4405  TIP3      H2             63.4301667684       33.5573550193        5.7174386735  TIP3      4269            0.0000000000
     30158      4406  TIP3      OH2            59.9104974919       29.5737474113        6.0656569821  TIP3      4270            0.0000000000
     30159      4406  TIP3      H1             59.1521104019       30.0307506823        6.4988326196  TIP3      4270            0.0000000000
     30160      4406  TIP3      H2             60.4243275798       30.3384159307        5.7464548380  TIP3      4270            0.0000000000
     30161      4407  TIP3      OH2            66.0525884344       24.1539099206        8.0197756233  TIP3      4271            0.0000000000
     30162      4407  TIP3      H1             66.8088598156       23.5472224241        8.0128239729  TIP3      4271            0.0000000000
     30163      4407  TIP3      H2             65.4795121492       23.7103174889        8.6671265221  TIP3      4271            0.0000000000
     30164      4408  TIP3      OH2            63.7064667461       35.0708832403        6.5687230481  TIP3      4272            0.0000000000
     30165      4408  TIP3      H1             63.8236909186       35.8478608088        5.9902463883  TIP3      4272            0.0000000000
     30166      4408  TIP3      H2             63.5414172377       35.5139145706        7.4354060374  TIP3      4272            0.0000000000
     30167      4409  TIP3      OH2            62.2806269760       21.7852493951        5.9218803508  TIP3      4273            0.0000000000
     30168      4409  TIP3      H1             61.9826768988       22.4623324693        6.5492330271  TIP3      4273            0.0000000000
     30169      4409  TIP3      H2             62.8555842977       21.2517893366        6.5334373210  TIP3      4273            0.0000000000
     30170      4410  TIP3      OH2            60.6790727828       32.0268985657        4.8937294481  TIP3      4274            0.0000000000
     30171      4410  TIP3      H1             61.4856356098       32.4489953710        5.2510295471  TIP3      4274            0.0000000000
     30172      4410  TIP3      H2             61.0693817376       31.5167549386        4.1538020422  TIP3      4274            0.0000000000
     30173      4411  TIP3      OH2            59.4896611183       24.7909025649        4.6886754767  TIP3      4275            0.0000000000
     30174      4411  TIP3      H1             59.4785932041       25.7526738059        4.4839636780  TIP3      4275            0.0000000000
     30175      4411  TIP3      H2             58.7113257255       24.5127712782        4.1975735898  TIP3      4275            0.0000000000
     30176      4412  TIP3      OH2            59.7133070867       19.8854271923       13.1121459843  TIP3      4276            0.0000000000
     30177      4412  TIP3      H1             59.5513193743       19.6997278898       12.1574465064  TIP3      4276            0.0000000000
     30178      4412  TIP3      H2             59.7257173465       18.9580625011       13.4503486890  TIP3      4276            0.0000000000
     30179      4413  TIP3      OH2            58.2720082912       33.2606644477        8.3534573188  TIP3      4277            0.0000000000
     30180      4413  TIP3      H1             57.6954957949       33.7846548895        8.9242675577  TIP3      4277            0.0000000000
     30181      4413  TIP3      H2             58.4647658196       33.9299972479        7.6568164955  TIP3      4277            0.0000000000
     30182      4414  TIP3      OH2            57.9185981463       36.0232270605       20.1116788191  TIP3      4278            0.0000000000
     30183      4414  TIP3      H1             58.6054641370       35.9112142105       20.8051927237  TIP3      4278            0.0000000000
     30184      4414  TIP3      H2             57.5702455009       35.1015804922       20.0309448354  TIP3      4278            0.0000000000
     30185      4415  TIP3      OH2            62.3816301002       34.5592313341       22.3636870197  TIP3      4279            0.0000000000
     30186      4415  TIP3      H1             61.9256073852       33.7170763207       22.5880936964  TIP3      4279            0.0000000000
     30187      4415  TIP3      H2             62.8870852842       34.2380378638       21.6017292124  TIP3      4279            0.0000000000
     30188      4416  TIP3      OH2            57.7623664984       29.8539732995       21.4887766219  TIP3      4280            0.0000000000
     30189      4416  TIP3      H1             57.2916340879       30.0251260548       20.6369688436  TIP3      4280            0.0000000000
     30190      4416  TIP3      H2             57.1494328761       30.3276420217       22.0655597197  TIP3      4280            0.0000000000
     30191      4417  TIP3      OH2            61.9285815793       30.0908141919        3.3483012567  TIP3      4281            0.0000000000
     30192      4417  TIP3      H1             62.2484162049       29.5417371387        4.0921048086  TIP3      4281            0.0000000000
     30193      4417  TIP3      H2             62.6707735039       30.0548806879        2.7268095484  TIP3      4281            0.0000000000
     30194      4418  TIP3      OH2            64.8501458654       29.4549353598       20.3432794954  TIP3      4282            0.0000000000
     30195      4418  TIP3      H1             64.6997085233       30.1392093179       19.6544921591  TIP3      4282            0.0000000000
     30196      4418  TIP3      H2             64.9895697976       28.6304399108       19.8265149857  TIP3      4282            0.0000000000
     30197      4419  TIP3      OH2            59.2049164221       27.1451113350       21.5133445706  TIP3      4283            0.0000000000
     30198      4419  TIP3      H1             60.1066056351       26.7919532999       21.4784638502  TIP3      4283            0.0000000000
     30199      4419  TIP3      H2             59.2939736966       27.9748511697       21.0252923330  TIP3      4283            0.0000000000
     30200      4420  TIP3      OH2            63.2662442419       28.8425905147        5.5190668944  TIP3      4284            0.0000000000
     30201      4420  TIP3      H1             62.7718982680       28.3988265992        6.2422104133  TIP3      4284            0.0000000000
     30202      4420  TIP3      H2             63.8125182069       28.0940791959        5.1878158023  TIP3      4284            0.0000000000
     30203      4421  TIP3      OH2            62.7469577293       26.3575346557       17.6576460486  TIP3      4285            0.0000000000
     30204      4421  TIP3      H1             62.1381429705       27.0955896974       17.4422649371  TIP3      4285            0.0000000000
     30205      4421  TIP3      H2             63.3294927880       26.3701084347       16.8844393509  TIP3      4285            0.0000000000
     30206      4422  TIP3      OH2            64.8138487010       26.9601949458        4.2444544544  TIP3      4286            0.0000000000
     30207      4422  TIP3      H1             64.9481407742       26.0994741763        3.8178263803  TIP3      4286            0.0000000000
     30208      4422  TIP3      H2             65.7253904353       27.2318709777        4.4513537702  TIP3      4286            0.0000000000
     30209      4423  TIP3      OH2            63.4163984911       23.8171235852       18.8326128494  TIP3      4287            0.0000000000
     30210      4423  TIP3      H1             63.4586911659       23.0778387420       18.1903071063  TIP3      4287            0.0000000000
     30211      4423  TIP3      H2             63.1401917709       24.5657165574       18.2655680384  TIP3      4287            0.0000000000
     30212      4424  TIP3      OH2            63.5255483016       21.6710698329       16.8259872210  TIP3      4288            0.0000000000
     30213      4424  TIP3      H1             64.0436629233       22.3001044469       16.2685195419  TIP3      4288            0.0000000000
     30214      4424  TIP3      H2             62.6447123769       21.7695017198       16.4075914896  TIP3      4288            0.0000000000
     30215      4425  TIP3      OH2            65.6304131031       27.7074231395       16.6552940618  TIP3      4289            0.0000000000
     30216      4425  TIP3      H1             66.1181785318       27.7794301631       15.8144412674  TIP3      4289            0.0000000000
     30217      4425  TIP3      H2             64.8338867912       28.2091517613       16.4000644811  TIP3      4289            0.0000000000
     30218      4426  TIP3      OH2            61.8391298481       24.4093731898       20.8999357309  TIP3      4290            0.0000000000
     30219      4426  TIP3      H1             61.1023621040       23.8696753520       20.5628150341  TIP3      4290            0.0000000000
     30220      4426  TIP3      H2             62.5062782271       24.2153021853       20.2009470659  TIP3      4290            0.0000000000
     30221      4427  TIP3      OH2            64.2850531712       19.1314913303       16.7891952042  TIP3      4291            0.0000000000
     30222      4427  TIP3      H1             64.1166226825       20.1029332777       16.7757915748  TIP3      4291            0.0000000000
     30223      4427  TIP3      H2             63.3756861758       18.8078392067       16.6109824350  TIP3      4291            0.0000000000
     30224      4428  TIP3      OH2            65.7040488508       23.5087233805       20.6002311917  TIP3      4292            0.0000000000
     30225      4428  TIP3      H1             65.4887057363       22.5996481033       20.9061823460  TIP3      4292            0.0000000000
     30226      4428  TIP3      H2             64.9534895013       23.6589709016       19.9963839012  TIP3      4292            0.0000000000
     30227      4429  TIP3      OH2            59.7555911730       22.4300150258       21.2764489355  TIP3      4293            0.0000000000
     30228      4429  TIP3      H1             59.6359163149       21.6761991172       20.6572721794  TIP3      4293            0.0000000000
     30229      4429  TIP3      H2             59.9715281393       21.9335992414       22.0828925427  TIP3      4293            0.0000000000
     30230      4430  TIP3      OH2            64.5538550871       19.1953843009       19.6922062909  TIP3      4294            0.0000000000
     30231      4430  TIP3      H1             64.8829172532       18.2883772434       19.7533151542  TIP3      4294            0.0000000000
     30232      4430  TIP3      H2             64.5134161023       19.3059568003       18.7216925940  TIP3      4294            0.0000000000
     30233      4431  TIP3      OH2            65.0111961653       21.0595201283       21.6286788067  TIP3      4295            0.0000000000
     30234      4431  TIP3      H1             64.7641834376       20.3916103829       20.9515191475  TIP3      4295            0.0000000000
     30235      4431  TIP3      H2             64.1811729670       21.1846706861       22.1077363809  TIP3      4295            0.0000000000
     30236      4432  TIP3      OH2            64.2922709523       37.2813733769        4.7698921941  TIP3      4296            0.0000000000
     30237      4432  TIP3      H1             64.4116200902       37.9500800165        5.4715742956  TIP3      4296            0.0000000000
     30238      4432  TIP3      H2             64.5710531469       37.7419671734        3.9639256079  TIP3      4296            0.0000000000
     30239      4433  TIP3      OH2            57.9506498550       31.7050252603        4.3397234766  TIP3      4297            0.0000000000
     30240      4433  TIP3      H1             58.8955911344       31.9016943457        4.5368173894  TIP3      4297            0.0000000000
     30241      4433  TIP3      H2             57.9457533920       31.7677709156        3.3598984677  TIP3      4297            0.0000000000
     30242      4434  TIP3      OH2            56.8124934260       36.9078687797        9.5470361195  TIP3      4298            0.0000000000
     30243      4434  TIP3      H1             56.0802121057       36.4159470341        9.1042061728  TIP3      4298            0.0000000000
     30244      4434  TIP3      H2             57.1040103540       36.2615600854       10.2262075219  TIP3      4298            0.0000000000
     30245      4435  TIP3      OH2            57.7939272224       35.3000870464       11.4621881672  TIP3      4299            0.0000000000
     30246      4435  TIP3      H1             57.0991926502       35.0051779165       12.0782491899  TIP3      4299            0.0000000000
     30247      4435  TIP3      H2             58.4247350285       35.6782394398       12.1113388820  TIP3      4299            0.0000000000
     30248      4436  TIP3      OH2            57.8105634247       28.7123447737       14.0161482627  TIP3      4300            0.0000000000
     30249      4436  TIP3      H1             57.7352106739       28.3971791769       13.0777847398  TIP3      4300            0.0000000000
     30250      4436  TIP3      H2             58.7668382070       28.5570454255       14.1955234996  TIP3      4300            0.0000000000
     30251      4437  TIP3      OH2            57.5855390826       23.5369644217       19.9712251057  TIP3      4301            0.0000000000
     30252      4437  TIP3      H1             58.3619932218       23.1086712423       20.3907900623  TIP3      4301            0.0000000000
     30253      4437  TIP3      H2             56.8799091271       22.8659191581       20.1373811215  TIP3      4301            0.0000000000
     30254      4438  TIP3      OH2            58.4570621091       22.2699554424       13.6938960394  TIP3      4302            0.0000000000
     30255      4438  TIP3      H1             58.6431564533       21.3140300220       13.5815721056  TIP3      4302            0.0000000000
     30256      4438  TIP3      H2             59.3562387997       22.6467839502       13.6401134520  TIP3      4302            0.0000000000
     30257      4439  TIP3      OH2            57.1629542821       25.2047167861       14.2447943986  TIP3      4303            0.0000000000
     30258      4439  TIP3      H1             57.4920967277       24.4367602621       13.7555290367  TIP3      4303            0.0000000000
     30259      4439  TIP3      H2             57.6770577058       25.9154089149       13.8420844246  TIP3      4303            0.0000000000
     30260      4440  TIP3      OH2            56.7918916388       21.1888009645        8.0327901937  TIP3      4304            0.0000000000
     30261      4440  TIP3      H1             55.9599659238       21.5103661445        7.6742058233  TIP3      4304            0.0000000000
     30262      4440  TIP3      H2             57.3944532950       21.4678666187        7.3229180697  TIP3      4304            0.0000000000
     30263      4441  TIP3      OH2            57.0636547301       19.8901777357       16.3651051407  TIP3      4305            0.0000000000
     30264      4441  TIP3      H1             56.4094609202       19.4918531219       16.9760058584  TIP3      4305            0.0000000000
     30265      4441  TIP3      H2             56.5577671158       20.6065228674       15.9610327272  TIP3      4305            0.0000000000
     30266      4442  TIP3      OH2            60.0275798214       32.9986621466       20.7932156676  TIP3      4306            0.0000000000
     30267      4442  TIP3      H1             59.3600412071       33.5775316718       20.4142061855  TIP3      4306            0.0000000000
     30268      4442  TIP3      H2             59.5490970997       32.5771413208       21.5246549741  TIP3      4306            0.0000000000
     30269      4443  TIP3      OH2            62.4615453271       34.6019872567       17.1668056186  TIP3      4307            0.0000000000
     30270      4443  TIP3      H1             62.3067211586       35.4359764296       16.6786641474  TIP3      4307            0.0000000000
     30271      4443  TIP3      H2             63.4332157526       34.5407733859       17.0744758672  TIP3      4307            0.0000000000
     30272      4444  TIP3      OH2            59.8588320848       37.3747306940       16.6837779539  TIP3      4308            0.0000000000
     30273      4444  TIP3      H1             59.0726890781       37.9210419059       16.4724235277  TIP3      4308            0.0000000000
     30274      4444  TIP3      H2             59.8442378703       37.4249202096       17.6568629230  TIP3      4308            0.0000000000
     30275      4445  TIP3      OH2            62.1440391750       36.8213920730       15.5755667693  TIP3      4309            0.0000000000
     30276      4445  TIP3      H1             61.2292830360       37.0342494761       15.8958949821  TIP3      4309            0.0000000000
     30277      4445  TIP3      H2             62.2986366845       37.5418093961       14.9221396818  TIP3      4309            0.0000000000
     30278      4446  TIP3      OH2            59.2639604453       35.9922803799       13.6019185857  TIP3      4310            0.0000000000
     30279      4446  TIP3      H1             59.0724475899       35.5758922900       14.4710454250  TIP3      4310            0.0000000000
     30280      4446  TIP3      H2             60.1811408319       35.6824656308       13.4121966189  TIP3      4310            0.0000000000
     30281      4447  TIP3      OH2            61.4005595406       35.1649821488       12.2069765399  TIP3      4311            0.0000000000
     30282      4447  TIP3      H1             61.1420706106       34.2791611250       12.5457635709  TIP3      4311            0.0000000000
     30283      4447  TIP3      H2             62.3076006605       35.1944624349       12.6012938310  TIP3      4311            0.0000000000
     30284      4448  TIP3      OH2            63.6955247066       34.7282984385       13.2769565226  TIP3      4312            0.0000000000
     30285      4448  TIP3      H1             64.0921459456       33.8410860244       13.1394328134  TIP3      4312            0.0000000000
     30286      4448  TIP3      H2             63.8518397727       34.8755900169       14.2115415449  TIP3      4312            0.0000000000
     30287      4449  TIP3      OH2            59.4684430018       19.1607744119       10.5262459270  TIP3      4313            0.0000000000
     30288      4449  TIP3      H1             58.5835530827       19.0467220518       10.1244129864  TIP3      4313            0.0000000000
     30289      4449  TIP3      H2             59.8740216111       18.2860171197       10.3239577463  TIP3      4313            0.0000000000
     30290      4450  TIP3      OH2            58.4462261275       19.1113950924        6.0292963697  TIP3      4314            0.0000000000
     30291      4450  TIP3      H1             58.8887661969       19.8913174656        5.6291715461  TIP3      4314            0.0000000000
     30292      4450  TIP3      H2             57.7774590624       19.4993804274        6.6119425456  TIP3      4314            0.0000000000
     30293      4451  TIP3      OH2            64.2115783383       19.2453675747       10.5905816504  TIP3      4315            0.0000000000
     30294      4451  TIP3      H1             64.5488745869       20.0544246083       10.1884032681  TIP3      4315            0.0000000000
     30295      4451  TIP3      H2             64.4294067167       19.4044359307       11.5376171757  TIP3      4315            0.0000000000
     30296      4452  TIP3      OH2            58.1704568301       35.2953527478        6.7326645579  TIP3      4316            0.0000000000
     30297      4452  TIP3      H1             57.3130015728       35.3057743395        6.2642478353  TIP3      4316            0.0000000000
     30298      4452  TIP3      H2             58.3581448638       36.2539907422        6.6597308986  TIP3      4316            0.0000000000
     30299      4453  TIP3      OH2            60.0104436452       20.8743441835        4.2963087700  TIP3      4317            0.0000000000
     30300      4453  TIP3      H1             60.6446027309       20.3047765009        3.8324762506  TIP3      4317            0.0000000000
     30301      4453  TIP3      H2             60.5999580912       21.3608131730        4.8997363613  TIP3      4317            0.0000000000
     30302      4454  TIP3      OH2            64.3575717591       20.8636058492        7.3830551646  TIP3      4318            0.0000000000
     30303      4454  TIP3      H1             65.1144481571       20.4766000370        7.8733785285  TIP3      4318            0.0000000000
     30304      4454  TIP3      H2             64.8377237648       21.5284000734        6.8676381538  TIP3      4318            0.0000000000
     30305      4455  TIP3      OH2            59.3372299906       19.9456947731       20.0857369026  TIP3      4319            0.0000000000
     30306      4455  TIP3      H1             58.9835468539       19.0316105558       20.0637787374  TIP3      4319            0.0000000000
     30307      4455  TIP3      H2             60.2001607703       19.8291377046       20.5283710127  TIP3      4319            0.0000000000
     30308      4456  TIP3      OH2            61.6301021133       19.4739861278       21.7399794036  TIP3      4320            0.0000000000
     30309      4456  TIP3      H1             62.2062700909       19.0615237978       21.0816486057  TIP3      4320            0.0000000000
     30310      4456  TIP3      H2             61.3150643293       18.7066734348       22.2629013438  TIP3      4320            0.0000000000
     30311      4457  TIP3      OH2            60.0666266328       36.9403078822        3.9664800016  TIP3      4321            0.0000000000
     30312      4457  TIP3      H1             59.8371060571       37.2586049390        4.8597856360  TIP3      4321            0.0000000000
     30313      4457  TIP3      H2             60.5524474810       36.1388944912        4.2113446392  TIP3      4321            0.0000000000
     30314      4458  TIP3      OH2            12.3747799230       47.6725060202        9.9268277310  TIP3      4322            0.0000000000
     30315      4458  TIP3      H1             12.1709974666       48.5959832434        9.6401536267  TIP3      4322            0.0000000000
     30316      4458  TIP3      H2             11.5297128329       47.2438750627        9.7195651061  TIP3      4322            0.0000000000
     30317      4459  TIP3      OH2            11.2566947409       46.5697809510       13.0929928944  TIP3      4323            0.0000000000
     30318      4459  TIP3      H1             11.1485352651       46.2589675308       14.0086553178  TIP3      4323            0.0000000000
     30319      4459  TIP3      H2             10.9203974233       45.8163177545       12.5755019697  TIP3      4323            0.0000000000
     30320      4460  TIP3      OH2             3.7295963987       46.4775268674       14.9682009673  TIP3      4324            0.0000000000
     30321      4460  TIP3      H1              3.6429859302       45.6007071548       15.3907790224  TIP3      4324            0.0000000000
     30322      4460  TIP3      H2              4.2806891060       46.9410053467       15.6248519804  TIP3      4324            0.0000000000
     30323      4461  TIP3      OH2            14.3223265460       49.5041769932       11.4593725094  TIP3      4325            0.0000000000
     30324      4461  TIP3      H1             13.9154636489       48.7694305951       11.9582671132  TIP3      4325            0.0000000000
     30325      4461  TIP3      H2             14.7946970637       50.0010849413       12.1436423994  TIP3      4325            0.0000000000
     30326      4462  TIP3      OH2             4.0610890788       51.0100203292       13.0423718910  TIP3      4326            0.0000000000
     30327      4462  TIP3      H1              3.8541231133       50.0767591721       12.8045604110  TIP3      4326            0.0000000000
     30328      4462  TIP3      H2              4.9974891851       50.8813601243       13.2408589242  TIP3      4326            0.0000000000
     30329      4463  TIP3      OH2             0.3943699804       44.4687827812        9.0930360881  TIP3      4327            0.0000000000
     30330      4463  TIP3      H1              0.7753908879       45.3508148104        9.1670924680  TIP3      4327            0.0000000000
     30331      4463  TIP3      H2             -0.5402198387       44.7058832042        9.0400083265  TIP3      4327            0.0000000000
     30332      4464  TIP3      OH2             1.4064695856       46.6147436393       11.6957028000  TIP3      4328            0.0000000000
     30333      4464  TIP3      H1              1.8250344217       45.7310650172       11.7972361982  TIP3      4328            0.0000000000
     30334      4464  TIP3      H2              2.0176190804       47.0476950953       11.0959260853  TIP3      4328            0.0000000000
     30335      4465  TIP3      OH2            12.2395898456       55.0670425635       11.8825841002  TIP3      4329            0.0000000000
     30336      4465  TIP3      H1             12.8960114970       54.3673002820       11.6374043699  TIP3      4329            0.0000000000
     30337      4465  TIP3      H2             11.6204441114       54.5579639463       12.4146412077  TIP3      4329            0.0000000000
     30338      4466  TIP3      OH2             9.1133014984       49.0615715339       14.3852688527  TIP3      4330            0.0000000000
     30339      4466  TIP3      H1              9.4882307606       48.8384763084       13.5219341831  TIP3      4330            0.0000000000
     30340      4466  TIP3      H2              9.9171330257       49.4021055308       14.8399233404  TIP3      4330            0.0000000000
     30341      4467  TIP3      OH2            18.5487672896       40.8435865582       14.8128649955  TIP3      4331            0.0000000000
     30342      4467  TIP3      H1             18.4927627572       41.1986285865       15.7264881956  TIP3      4331            0.0000000000
     30343      4467  TIP3      H2             19.4983426699       41.0359051824       14.6240754119  TIP3      4331            0.0000000000
     30344      4468  TIP3      OH2            13.1446691865       44.0337712058       14.6348233744  TIP3      4332            0.0000000000
     30345      4468  TIP3      H1             13.8955700905       43.5627882589       15.0756273797  TIP3      4332            0.0000000000
     30346      4468  TIP3      H2             12.5465944709       43.2697080481       14.5894145564  TIP3      4332            0.0000000000
     30347      4469  TIP3      OH2             5.1888166146       41.6233817006       11.3490775712  TIP3      4333            0.0000000000
     30348      4469  TIP3      H1              5.6658543457       42.2930164832       10.8114970507  TIP3      4333            0.0000000000
     30349      4469  TIP3      H2              4.9044743275       41.0212650954       10.6274257304  TIP3      4333            0.0000000000
     30350      4470  TIP3      OH2            12.8545849362       41.6956847517       10.1086553297  TIP3      4334            0.0000000000
     30351      4470  TIP3      H1             13.3682874065       41.3823066591       10.8720437020  TIP3      4334            0.0000000000
     30352      4470  TIP3      H2             13.2970025936       42.5126685812        9.8353722231  TIP3      4334            0.0000000000
     30353      4471  TIP3      OH2             2.3977254331       44.1540210612       12.0354966203  TIP3      4335            0.0000000000
     30354      4471  TIP3      H1              2.9918174590       43.6327457882       12.6053345410  TIP3      4335            0.0000000000
     30355      4471  TIP3      H2              2.5902433949       43.7437387388       11.1749670821  TIP3      4335            0.0000000000
     30356      4472  TIP3      OH2             6.9104506798       45.6959171940       11.4092145821  TIP3      4336            0.0000000000
     30357      4472  TIP3      H1              7.6907038929       45.2021054095       11.7414333971  TIP3      4336            0.0000000000
     30358      4472  TIP3      H2              6.5738731586       44.9829846025       10.8260007601  TIP3      4336            0.0000000000
     30359      4473  TIP3      OH2            18.8845713128       41.9551015887       17.3983207959  TIP3      4337            0.0000000000
     30360      4473  TIP3      H1             18.5552729319       42.7825072433       16.9944481231  TIP3      4337            0.0000000000
     30361      4473  TIP3      H2             18.7058447279       42.1701208805       18.3364061030  TIP3      4337            0.0000000000
     30362      4474  TIP3      OH2             4.7099118749       40.7742965350       15.4468507055  TIP3      4338            0.0000000000
     30363      4474  TIP3      H1              4.3590304107       41.3525018114       14.7380175859  TIP3      4338            0.0000000000
     30364      4474  TIP3      H2              4.0347611837       40.8960109579       16.1520424202  TIP3      4338            0.0000000000
     30365      4475  TIP3      OH2            11.4305622524       49.9449692346        8.8641734812  TIP3      4339            0.0000000000
     30366      4475  TIP3      H1             11.2334842293       50.0601342003        7.9144433922  TIP3      4339            0.0000000000
     30367      4475  TIP3      H2             11.0326589066       50.7705285298        9.2148443808  TIP3      4339            0.0000000000
     30368      4476  TIP3      OH2             6.7682598464       48.1940214151       15.6375458353  TIP3      4340            0.0000000000
     30369      4476  TIP3      H1              6.1231756774       48.8903171935       15.8928512290  TIP3      4340            0.0000000000
     30370      4476  TIP3      H2              7.4784294918       48.7262411633       15.2237168785  TIP3      4340            0.0000000000
     30371      4477  TIP3      OH2            15.0718317334       41.4572852758       12.6736772965  TIP3      4341            0.0000000000
     30372      4477  TIP3      H1             14.3028020145       40.8923349043       12.8997112812  TIP3      4341            0.0000000000
     30373      4477  TIP3      H2             15.1946615229       41.8697145425       13.5571892802  TIP3      4341            0.0000000000
     30374      4478  TIP3      OH2             4.1784394496       42.6337266581       13.5588640310  TIP3      4342            0.0000000000
     30375      4478  TIP3      H1              4.8440715311       43.2701347660       13.9144401050  TIP3      4342            0.0000000000
     30376      4478  TIP3      H2              4.6924704362       42.2531403207       12.7924013950  TIP3      4342            0.0000000000
     30377      4479  TIP3      OH2             5.5669264231       50.5384148167       16.0002443865  TIP3      4343            0.0000000000
     30378      4479  TIP3      H1              5.4570903311       51.4635981740       15.7322754286  TIP3      4343            0.0000000000
     30379      4479  TIP3      H2              4.7771107773       50.4296563601       16.5850774047  TIP3      4343            0.0000000000
     30380      4480  TIP3      OH2             1.5831100508       50.0068251546        7.1153580583  TIP3      4344            0.0000000000
     30381      4480  TIP3      H1              0.7212859195       49.5386832739        7.0124058688  TIP3      4344            0.0000000000
     30382      4480  TIP3      H2              1.4802258565       50.4487018315        7.9712171148  TIP3      4344            0.0000000000
     30383      4481  TIP3      OH2            15.2849946787       51.6601746007       14.0219450019  TIP3      4345            0.0000000000
     30384      4481  TIP3      H1             14.3462773644       51.8433499007       14.2532588821  TIP3      4345            0.0000000000
     30385      4481  TIP3      H2             15.4606858103       52.3993055500       13.4199960045  TIP3      4345            0.0000000000
     30386      4482  TIP3      OH2            16.1317570942       39.0987946588       16.1534845520  TIP3      4346            0.0000000000
     30387      4482  TIP3      H1             15.8619936937       40.0425597417       16.1570267142  TIP3      4346            0.0000000000
     30388      4482  TIP3      H2             16.6559884213       39.0680123091       15.3340594549  TIP3      4346            0.0000000000
     30389      4483  TIP3      OH2             8.0957768149       37.9567772172       13.1135454559  TIP3      4347            0.0000000000
     30390      4483  TIP3      H1              7.6632915000       37.2169529468       12.6686570745  TIP3      4347            0.0000000000
     30391      4483  TIP3      H2              7.3040996169       38.5149809608       13.3197093832  TIP3      4347            0.0000000000
     30392      4484  TIP3      OH2            13.9391064117       53.3707567026       10.5885018015  TIP3      4348            0.0000000000
     30393      4484  TIP3      H1             13.9935854329       52.5078597169       10.1078929761  TIP3      4348            0.0000000000
     30394      4484  TIP3      H2             13.9568480743       53.9958823166        9.8410515113  TIP3      4348            0.0000000000
     30395      4485  TIP3      OH2            14.7584775718       51.2273787107        9.2425486830  TIP3      4349            0.0000000000
     30396      4485  TIP3      H1             14.6922030164       50.5966993473        8.4970369111  TIP3      4349            0.0000000000
     30397      4485  TIP3      H2             14.6257510533       50.6160113918       10.0051697483  TIP3      4349            0.0000000000
     30398      4486  TIP3      OH2            16.4885090055       50.2138752087       18.2440619499  TIP3      4350            0.0000000000
     30399      4486  TIP3      H1             16.7004478998       49.5464158283       17.5431281414  TIP3      4350            0.0000000000
     30400      4486  TIP3      H2             16.4769609979       50.9887113210       17.6437902743  TIP3      4350            0.0000000000
     30401      4487  TIP3      OH2            10.8307202812       46.6695884954        7.3127510080  TIP3      4351            0.0000000000
     30402      4487  TIP3      H1             10.2112979273       47.4275759338        7.4467906626  TIP3      4351            0.0000000000
     30403      4487  TIP3      H2             11.6307571032       47.1427794107        7.0235993763  TIP3      4351            0.0000000000
     30404      4488  TIP3      OH2            10.7123602482       45.9187493773        4.4353249467  TIP3      4352            0.0000000000
     30405      4488  TIP3      H1             10.8960862114       46.1766238893        5.3571713381  TIP3      4352            0.0000000000
     30406      4488  TIP3      H2             10.9150554103       44.9765067954        4.4625955013  TIP3      4352            0.0000000000
     30407      4489  TIP3      OH2            17.7305935829       46.2664540492       15.1874018022  TIP3      4353            0.0000000000
     30408      4489  TIP3      H1             17.3055709595       47.0820501291       15.5110831139  TIP3      4353            0.0000000000
     30409      4489  TIP3      H2             18.6005034023       46.6009217515       14.8776831695  TIP3      4353            0.0000000000
     30410      4490  TIP3      OH2            14.6726223356       47.0912256276        8.5350285076  TIP3      4354            0.0000000000
     30411      4490  TIP3      H1             13.9081744028       47.2077910812        9.1587242522  TIP3      4354            0.0000000000
     30412      4490  TIP3      H2             15.2830431720       46.5932438512        9.1192541114  TIP3      4354            0.0000000000
     30413      4491  TIP3      OH2            13.8227191564       44.9038425819       18.2506920497  TIP3      4355            0.0000000000
     30414      4491  TIP3      H1             14.1436102868       45.6530712506       18.7730868103  TIP3      4355            0.0000000000
     30415      4491  TIP3      H2             13.4985515504       45.3569511922       17.4524376691  TIP3      4355            0.0000000000
     30416      4492  TIP3      OH2             5.4452359698       47.5089230127       10.2136420727  TIP3      4356            0.0000000000
     30417      4492  TIP3      H1              5.4028214046       47.1018704812        9.3309395733  TIP3      4356            0.0000000000
     30418      4492  TIP3      H2              6.1096584450       46.9202578416       10.6502370221  TIP3      4356            0.0000000000
     30419      4493  TIP3      OH2             7.1783311070       50.9701206246       12.9855747737  TIP3      4357            0.0000000000
     30420      4493  TIP3      H1              7.2097804737       50.7573486682       12.0420056680  TIP3      4357            0.0000000000
     30421      4493  TIP3      H2              7.7234684558       50.2781918889       13.3939932916  TIP3      4357            0.0000000000
     30422      4494  TIP3      OH2             6.3712701667       46.1656805707       13.9389226718  TIP3      4358            0.0000000000
     30423      4494  TIP3      H1              6.5574767736       46.2862963529       12.9822432167  TIP3      4358            0.0000000000
     30424      4494  TIP3      H2              6.5013579064       47.0458276183       14.3453738366  TIP3      4358            0.0000000000
     30425      4495  TIP3      OH2            12.7808613557       52.1282700264       14.7680284786  TIP3      4359            0.0000000000
     30426      4495  TIP3      H1             12.3530361616       52.7488251953       15.3839821857  TIP3      4359            0.0000000000
     30427      4495  TIP3      H2             12.3548433749       51.2893612696       15.0348503318  TIP3      4359            0.0000000000
     30428      4496  TIP3      OH2             6.9963118652       50.6277618542       18.3908616656  TIP3      4360            0.0000000000
     30429      4496  TIP3      H1              6.3867328598       51.2887805422       18.7775450496  TIP3      4360            0.0000000000
     30430      4496  TIP3      H2              6.5895704468       50.5015924577       17.5096228976  TIP3      4360            0.0000000000
     30431      4497  TIP3      OH2            13.3733793165       46.3075969992        6.3062851248  TIP3      4361            0.0000000000
     30432      4497  TIP3      H1             13.9265421539       46.6838240062        7.0314297454  TIP3      4361            0.0000000000
     30433      4497  TIP3      H2             13.7600373098       46.7624169997        5.5239581570  TIP3      4361            0.0000000000
     30434      4498  TIP3      OH2             4.3930411260       47.0831105653       17.5665913611  TIP3      4362            0.0000000000
     30435      4498  TIP3      H1              4.3808613389       47.4893058364       18.4419345265  TIP3      4362            0.0000000000
     30436      4498  TIP3      H2              3.4807034827       46.7176718956       17.5047238545  TIP3      4362            0.0000000000
     30437      4499  TIP3      OH2            10.3042314981       52.4373874161        9.3112635554  TIP3      4363            0.0000000000
     30438      4499  TIP3      H1             10.6180890304       53.0808421641        9.9512539325  TIP3      4363            0.0000000000
     30439      4499  TIP3      H2              9.8799688914       53.0130365757        8.6580702272  TIP3      4363            0.0000000000
     30440      4500  TIP3      OH2             5.4594612316       52.6737045509       19.4567033133  TIP3      4364            0.0000000000
     30441      4500  TIP3      H1              5.3087006516       52.8488785579       18.4999450773  TIP3      4364            0.0000000000
     30442      4500  TIP3      H2              4.5412493216       52.5317736214       19.7569903646  TIP3      4364            0.0000000000
     30443      4501  TIP3      OH2            17.1563531875       37.7535485934        6.6407898777  TIP3      4365            0.0000000000
     30444      4501  TIP3      H1             16.1697904371       37.7720028211        6.6163384738  TIP3      4365            0.0000000000
     30445      4501  TIP3      H2             17.3462220733       38.5504655029        6.1065595355  TIP3      4365            0.0000000000
     30446      4502  TIP3      OH2             4.9112314670       46.3323123573        7.7216942406  TIP3      4366            0.0000000000
     30447      4502  TIP3      H1              4.4192562626       47.1203427109        7.3935692457  TIP3      4366            0.0000000000
     30448      4502  TIP3      H2              4.2134532012       45.7100864630        7.9635213250  TIP3      4366            0.0000000000
     30449      4503  TIP3      OH2            18.1808844133       52.3758534977        4.7705943333  TIP3      4367            0.0000000000
     30450      4503  TIP3      H1             18.4380151688       53.3044048136        4.6633111152  TIP3      4367            0.0000000000
     30451      4503  TIP3      H2             19.0090487370       51.9207196168        4.5544230741  TIP3      4367            0.0000000000
     30452      4504  TIP3      OH2             1.3892258573       48.8984282425       17.2505535946  TIP3      4368            0.0000000000
     30453      4504  TIP3      H1              0.6064250584       48.8118664089       16.6884644338  TIP3      4368            0.0000000000
     30454      4504  TIP3      H2              1.6397100198       47.9575549284       17.3576590437  TIP3      4368            0.0000000000
     30455      4505  TIP3      OH2             0.7457576829       51.8305177401       13.5258865820  TIP3      4369            0.0000000000
     30456      4505  TIP3      H1              1.6675482475       51.5505213948       13.3800045579  TIP3      4369            0.0000000000
     30457      4505  TIP3      H2              0.8501251537       52.3338248974       14.3596532874  TIP3      4369            0.0000000000
     30458      4506  TIP3      OH2            18.6056240354       52.3993408690       19.8513399807  TIP3      4370            0.0000000000
     30459      4506  TIP3      H1             18.5642776804       51.5169931145       20.2435308665  TIP3      4370            0.0000000000
     30460      4506  TIP3      H2             17.7080121795       52.7426303090       20.0539811039  TIP3      4370            0.0000000000
     30461      4507  TIP3      OH2             9.5295534797       51.9168791573       18.3851659202  TIP3      4371            0.0000000000
     30462      4507  TIP3      H1              9.6142134387       52.7997401524       18.8099004108  TIP3      4371            0.0000000000
     30463      4507  TIP3      H2              8.5834413568       51.6995156011       18.4648596118  TIP3      4371            0.0000000000
     30464      4508  TIP3      OH2            10.3817183228       55.7260339182        7.6447822647  TIP3      4372            0.0000000000
     30465      4508  TIP3      H1             10.4267013000       55.8610548252        6.6706758120  TIP3      4372            0.0000000000
     30466      4508  TIP3      H2             10.5385445617       56.6271888343        7.9991451574  TIP3      4372            0.0000000000
     30467      4509  TIP3      OH2             4.6139304761       54.5148456456        9.7168626976  TIP3      4373            0.0000000000
     30468      4509  TIP3      H1              4.6624485461       54.3652657202       10.6874447496  TIP3      4373            0.0000000000
     30469      4509  TIP3      H2              3.8985201125       53.8867261356        9.4579745490  TIP3      4373            0.0000000000
     30470      4510  TIP3      OH2            13.4172457815       54.8275682659        4.6343473097  TIP3      4374            0.0000000000
     30471      4510  TIP3      H1             14.0262648430       54.1622105201        4.2460194151  TIP3      4374            0.0000000000
     30472      4510  TIP3      H2             13.6488032890       54.8131633120        5.5732529424  TIP3      4374            0.0000000000
     30473      4511  TIP3      OH2            13.0605967861       54.9176173935        8.3515652187  TIP3      4375            0.0000000000
     30474      4511  TIP3      H1             12.1590423482       55.2580780091        8.1792208056  TIP3      4375            0.0000000000
     30475      4511  TIP3      H2             12.9702308027       54.0008146560        8.0604266751  TIP3      4375            0.0000000000
     30476      4512  TIP3      OH2            15.9741119893       43.5448634974       19.8462487346  TIP3      4376            0.0000000000
     30477      4512  TIP3      H1             15.3771816064       43.9323388074       19.1876400147  TIP3      4376            0.0000000000
     30478      4512  TIP3      H2             16.2383864672       42.7105823634       19.4057823626  TIP3      4376            0.0000000000
     30479      4513  TIP3      OH2             3.6777963069       50.3810110144       17.8879985651  TIP3      4377            0.0000000000
     30480      4513  TIP3      H1              3.6904852448       50.0166397639       18.7975709691  TIP3      4377            0.0000000000
     30481      4513  TIP3      H2              2.8505159152       49.9507677709       17.5706168889  TIP3      4377            0.0000000000
     30482      4514  TIP3      OH2             5.8513667514       39.1321695757       13.7849726106  TIP3      4378            0.0000000000
     30483      4514  TIP3      H1              4.9344478995       39.1600068505       13.4198923425  TIP3      4378            0.0000000000
     30484      4514  TIP3      H2              5.7419392462       39.7547843083       14.5330512784  TIP3      4378            0.0000000000
     30485      4515  TIP3      OH2            10.6379773283       38.8888052419       16.6720718607  TIP3      4379            0.0000000000
     30486      4515  TIP3      H1             10.9185211216       38.5052898551       17.5358559182  TIP3      4379            0.0000000000
     30487      4515  TIP3      H2              9.6576043705       38.8272208414       16.7683453914  TIP3      4379            0.0000000000
     30488      4516  TIP3      OH2            13.5398487431       42.2614996542       18.1402906698  TIP3      4380            0.0000000000
     30489      4516  TIP3      H1             12.8863524570       42.2113672612       18.8759566917  TIP3      4380            0.0000000000
     30490      4516  TIP3      H2             13.7556642058       43.2159640548       18.1190713070  TIP3      4380            0.0000000000
     30491      4517  TIP3      OH2            14.7168388609       47.5659453797        4.4034581698  TIP3      4381            0.0000000000
     30492      4517  TIP3      H1             14.6187916111       47.7922012825        3.4635404086  TIP3      4381            0.0000000000
     30493      4517  TIP3      H2             15.4976408678       48.0824636398        4.6634483335  TIP3      4381            0.0000000000
     30494      4518  TIP3      OH2            10.1968474602       41.4644874394        4.3965896963  TIP3      4382            0.0000000000
     30495      4518  TIP3      H1              9.9018118838       41.3044474598        5.3123308546  TIP3      4382            0.0000000000
     30496      4518  TIP3      H2             10.0905410906       40.5868739674        4.0284762023  TIP3      4382            0.0000000000
     30497      4519  TIP3      OH2             6.2616629043       43.7189899434       14.8012766748  TIP3      4383            0.0000000000
     30498      4519  TIP3      H1              5.7596185786       43.9478525184       15.6153561014  TIP3      4383            0.0000000000
     30499      4519  TIP3      H2              6.3246000501       44.6194595382       14.4060797176  TIP3      4383            0.0000000000
     30500      4520  TIP3      OH2             6.0938949145       43.6096483587        9.7968609133  TIP3      4384            0.0000000000
     30501      4520  TIP3      H1              5.1371948439       43.7965457575        9.6632711765  TIP3      4384            0.0000000000
     30502      4520  TIP3      H2              6.3103466859       43.2335603567        8.9252008653  TIP3      4384            0.0000000000
     30503      4521  TIP3      OH2            11.7825420434       44.6820676692        8.8284381832  TIP3      4385            0.0000000000
     30504      4521  TIP3      H1             11.3688396115       45.3307256539        8.2051641351  TIP3      4385            0.0000000000
     30505      4521  TIP3      H2             12.5038303226       44.3397081337        8.2679876117  TIP3      4385            0.0000000000
     30506      4522  TIP3      OH2            10.1529992339       44.9917271754       20.3850840156  TIP3      4386            0.0000000000
     30507      4522  TIP3      H1              9.7816717793       44.0957586477       20.5183103146  TIP3      4386            0.0000000000
     30508      4522  TIP3      H2             10.9756239925       44.9445024652       20.8908147512  TIP3      4386            0.0000000000
     30509      4523  TIP3      OH2            11.3746827844       44.2793742708       11.5529118237  TIP3      4387            0.0000000000
     30510      4523  TIP3      H1             11.7011799736       44.7727515891       10.7656239571  TIP3      4387            0.0000000000
     30511      4523  TIP3      H2             12.0857896106       43.6233529680       11.6519528951  TIP3      4387            0.0000000000
     30512      4524  TIP3      OH2             3.2529549482       43.9272730339       16.3010930344  TIP3      4388            0.0000000000
     30513      4524  TIP3      H1              3.5771382342       44.2186983373       17.1666790064  TIP3      4388            0.0000000000
     30514      4524  TIP3      H2              3.0667773841       42.9939374017       16.4954269778  TIP3      4388            0.0000000000
     30515      4525  TIP3      OH2             6.8412775364       41.3868559105        3.8393779254  TIP3      4389            0.0000000000
     30516      4525  TIP3      H1              6.5339410746       40.8797249191        4.6111969169  TIP3      4389            0.0000000000
     30517      4525  TIP3      H2              6.6997513879       42.3157333242        4.1412447327  TIP3      4389            0.0000000000
     30518      4526  TIP3      OH2             1.5610111971       41.4485340912       10.3845691861  TIP3      4390            0.0000000000
     30519      4526  TIP3      H1              1.4220476648       40.9772410309       11.2196734279  TIP3      4390            0.0000000000
     30520      4526  TIP3      H2              1.1907088619       40.8376011788        9.7307223226  TIP3      4390            0.0000000000
     30521      4527  TIP3      OH2             1.8944986321       41.6708408982        5.9751994477  TIP3      4391            0.0000000000
     30522      4527  TIP3      H1              2.4225749387       42.3106790403        5.4533824968  TIP3      4391            0.0000000000
     30523      4527  TIP3      H2              1.1033571465       42.2143023670        6.1026310916  TIP3      4391            0.0000000000
     30524      4528  TIP3      OH2            11.7586434484       46.0986657918       15.8008837666  TIP3      4392            0.0000000000
     30525      4528  TIP3      H1             12.4523971848       45.5682165209       15.3447369147  TIP3      4392            0.0000000000
     30526      4528  TIP3      H2             11.2692839600       45.4217099265       16.2852875819  TIP3      4392            0.0000000000
     30527      4529  TIP3      OH2             9.0796311434       41.2352131357       11.3608502356  TIP3      4393            0.0000000000
     30528      4529  TIP3      H1              8.7564585563       42.0340608407       11.8246902400  TIP3      4393            0.0000000000
     30529      4529  TIP3      H2              9.5579389798       40.7470205591       12.0560923242  TIP3      4393            0.0000000000
     30530      4530  TIP3      OH2             3.4072624994       43.4798614537        9.4685277613  TIP3      4394            0.0000000000
     30531      4530  TIP3      H1              2.7712208944       43.6166673298        8.7579029196  TIP3      4394            0.0000000000
     30532      4530  TIP3      H2              3.1507579939       42.5717623714        9.7272748269  TIP3      4394            0.0000000000
     30533      4531  TIP3      OH2             6.2018222006       43.0172082651        7.1251367259  TIP3      4395            0.0000000000
     30534      4531  TIP3      H1              7.1119104272       43.2870477931        7.2850280330  TIP3      4395            0.0000000000
     30535      4531  TIP3      H2              6.0193113140       43.5124338824        6.2898925958  TIP3      4395            0.0000000000
     30536      4532  TIP3      OH2            12.5790752798       40.7552915053       13.7570138624  TIP3      4396            0.0000000000
     30537      4532  TIP3      H1             12.2130484821       40.8098518953       14.6660661320  TIP3      4396            0.0000000000
     30538      4532  TIP3      H2             12.0087887899       40.0606748835       13.3672323371  TIP3      4396            0.0000000000
     30539      4533  TIP3      OH2             6.0102307007       43.7996904148        4.6268146114  TIP3      4397            0.0000000000
     30540      4533  TIP3      H1              5.2159590392       44.0786249181        4.1526456542  TIP3      4397            0.0000000000
     30541      4533  TIP3      H2              6.7115375364       44.4109965515        4.2970547332  TIP3      4397            0.0000000000
     30542      4534  TIP3      OH2            15.6327649923       56.3429838953       20.5196718040  TIP3      4398            0.0000000000
     30543      4534  TIP3      H1             16.1790275887       56.6477547017       19.7652686330  TIP3      4398            0.0000000000
     30544      4534  TIP3      H2             15.9828755628       56.9058656531       21.2164921540  TIP3      4398            0.0000000000
     30545      4535  TIP3      OH2             3.0764442683       49.2023258086       20.2740614879  TIP3      4399            0.0000000000
     30546      4535  TIP3      H1              3.8984590098       48.9991720210       20.7771883961  TIP3      4399            0.0000000000
     30547      4535  TIP3      H2              2.3584977410       49.0056026747       20.9185071103  TIP3      4399            0.0000000000
     30548      4536  TIP3      OH2             8.7626490557       43.8403771930       12.1509995255  TIP3      4400            0.0000000000
     30549      4536  TIP3      H1              9.7328373573       43.9896096417       12.0240526128  TIP3      4400            0.0000000000
     30550      4536  TIP3      H2              8.7057863441       43.5215759533       13.0637420110  TIP3      4400            0.0000000000
     30551      4537  TIP3      OH2             4.6508989304       40.0819877962        9.2702248146  TIP3      4401            0.0000000000
     30552      4537  TIP3      H1              4.2398796371       39.3027287474        9.7113878084  TIP3      4401            0.0000000000
     30553      4537  TIP3      H2              5.0964798789       39.6955620682        8.5093343271  TIP3      4401            0.0000000000
     30554      4538  TIP3      OH2             8.5236453867       42.3641189337       15.1396159437  TIP3      4402            0.0000000000
     30555      4538  TIP3      H1              7.7188689517       42.8960055344       14.9685459704  TIP3      4402            0.0000000000
     30556      4538  TIP3      H2              9.0197700297       42.9265496434       15.7488624049  TIP3      4402            0.0000000000
     30557      4539  TIP3      OH2             8.9820440255       48.5663707905        7.3394213325  TIP3      4403            0.0000000000
     30558      4539  TIP3      H1              8.2334531226       48.1173490603        6.8841626872  TIP3      4403            0.0000000000
     30559      4539  TIP3      H2              8.4984671975       48.9831226062        8.0881467971  TIP3      4403            0.0000000000
     30560      4540  TIP3      OH2            16.6924584309       48.7573062409       16.0631221028  TIP3      4404            0.0000000000
     30561      4540  TIP3      H1             17.1875457330       49.2389036750       15.3471695464  TIP3      4404            0.0000000000
     30562      4540  TIP3      H2             15.8041183023       48.7172605747       15.6699990082  TIP3      4404            0.0000000000
     30563      4541  TIP3      OH2            12.9116438086       41.9419823617        5.9810203424  TIP3      4405            0.0000000000
     30564      4541  TIP3      H1             12.3662969569       42.3636289976        5.2986628198  TIP3      4405            0.0000000000
     30565      4541  TIP3      H2             13.4418573737       42.6903140473        6.3290233002  TIP3      4405            0.0000000000
     30566      4542  TIP3      OH2             9.9799254507       49.2032867817       18.1053923323  TIP3      4406            0.0000000000
     30567      4542  TIP3      H1              9.6063459890       48.7658805005       18.8854661502  TIP3      4406            0.0000000000
     30568      4542  TIP3      H2              9.8887610504       50.1446000424       18.3495430474  TIP3      4406            0.0000000000
     30569      4543  TIP3      OH2            14.0864287202       43.9517548287        7.3190669088  TIP3      4407            0.0000000000
     30570      4543  TIP3      H1             14.8455718073       44.1488663709        7.8878707217  TIP3      4407            0.0000000000
     30571      4543  TIP3      H2             13.9391916655       44.7986785723        6.8471691948  TIP3      4407            0.0000000000
     30572      4544  TIP3      OH2             3.9195383813       48.4162327902       12.4096541708  TIP3      4408            0.0000000000
     30573      4544  TIP3      H1              4.3120021784       48.1685323964       11.5509326905  TIP3      4408            0.0000000000
     30574      4544  TIP3      H2              4.1660052930       47.6640423601       12.9755269459  TIP3      4408            0.0000000000
     30575      4545  TIP3      OH2            10.8307154229       50.0676633279        6.0468229691  TIP3      4409            0.0000000000
     30576      4545  TIP3      H1             10.3797817844       50.9418471397        6.1263339598  TIP3      4409            0.0000000000
     30577      4545  TIP3      H2             10.1741192690       49.4627024166        6.4627971616  TIP3      4409            0.0000000000
     30578      4546  TIP3      OH2             1.7413954132       46.2375370729       17.6929968826  TIP3      4410            0.0000000000
     30579      4546  TIP3      H1              1.4901851838       46.2108623487       18.6374238503  TIP3      4410            0.0000000000
     30580      4546  TIP3      H2              0.8742576964       45.9991516978       17.2845081803  TIP3      4410            0.0000000000
     30581      4547  TIP3      OH2             7.6600404008       46.2466429245       19.6322797274  TIP3      4411            0.0000000000
     30582      4547  TIP3      H1              7.5071830902       46.1306479045       18.6763444862  TIP3      4411            0.0000000000
     30583      4547  TIP3      H2              8.4740564670       45.7217554189       19.7740647251  TIP3      4411            0.0000000000
     30584      4548  TIP3      OH2            12.8638998979       51.6480871489       18.2425437283  TIP3      4412            0.0000000000
     30585      4548  TIP3      H1             12.1309498143       51.5222111226       17.6280966652  TIP3      4412            0.0000000000
     30586      4548  TIP3      H2             12.4164167528       52.0619441291       19.0105935091  TIP3      4412            0.0000000000
     30587      4549  TIP3      OH2            18.6694554564       43.5561238215        6.4766768066  TIP3      4413            0.0000000000
     30588      4549  TIP3      H1             18.0015633292       43.5610828051        5.7519042092  TIP3      4413            0.0000000000
     30589      4549  TIP3      H2             19.1694344861       44.3474037600        6.2358305270  TIP3      4413            0.0000000000
     30590      4550  TIP3      OH2            18.6606104710       49.2769935691       19.5081682013  TIP3      4414            0.0000000000
     30591      4550  TIP3      H1             17.8509057609       49.7211387888       19.1689669566  TIP3      4414            0.0000000000
     30592      4550  TIP3      H2             19.1974380811       49.2364206154       18.6820551037  TIP3      4414            0.0000000000
     30593      4551  TIP3      OH2            16.3122887017       52.6315434558        6.6391325220  TIP3      4415            0.0000000000
     30594      4551  TIP3      H1             16.1900412254       51.7120112681        6.8921990590  TIP3      4415            0.0000000000
     30595      4551  TIP3      H2             17.0050830313       52.5568754942        5.9444746594  TIP3      4415            0.0000000000
     30596      4552  TIP3      OH2            13.8164150639       47.4854970419       13.7909655003  TIP3      4416            0.0000000000
     30597      4552  TIP3      H1             12.9179764018       47.2717273455       13.4692803979  TIP3      4416            0.0000000000
     30598      4552  TIP3      H2             14.3699419220       46.8132755289       13.3567448689  TIP3      4416            0.0000000000
     30599      4553  TIP3      OH2             6.2564263336       51.6861112880       10.0892227411  TIP3      4417            0.0000000000
     30600      4553  TIP3      H1              6.5124912763       52.6200153452        9.9379472876  TIP3      4417            0.0000000000
     30601      4553  TIP3      H2              5.4707588998       51.6173870394        9.5249096807  TIP3      4417            0.0000000000
     30602      4554  TIP3      OH2             1.6339805653       46.5072590794        5.4585267931  TIP3      4418            0.0000000000
     30603      4554  TIP3      H1              2.5762862223       46.5994764548        5.2452410489  TIP3      4418            0.0000000000
     30604      4554  TIP3      H2              1.4538218754       47.3861657987        5.8248390659  TIP3      4418            0.0000000000
     30605      4555  TIP3      OH2             7.5467479345       49.4233621603        9.4951178806  TIP3      4419            0.0000000000
     30606      4555  TIP3      H1              7.1959837200       50.3254797354        9.6661536353  TIP3      4419            0.0000000000
     30607      4555  TIP3      H2              6.9123542480       48.8519697738        9.9564090040  TIP3      4419            0.0000000000
     30608      4556  TIP3      OH2             8.2589696509       53.6320244826       16.4422644014  TIP3      4420            0.0000000000
     30609      4556  TIP3      H1              9.0157169045       54.1415939626       16.1010157325  TIP3      4420            0.0000000000
     30610      4556  TIP3      H2              8.6995411483       53.0455264109       17.0859029719  TIP3      4420            0.0000000000
     30611      4557  TIP3      OH2             7.1329630152       54.0582425942        8.8979189074  TIP3      4421            0.0000000000
     30612      4557  TIP3      H1              6.1719144461       54.2304546858        9.0342426425  TIP3      4421            0.0000000000
     30613      4557  TIP3      H2              7.4706740614       54.8845921731        9.2934585367  TIP3      4421            0.0000000000
     30614      4558  TIP3      OH2            11.5086116983       49.7836649524       15.6361019962  TIP3      4422            0.0000000000
     30615      4558  TIP3      H1             11.2130463466       49.4990891210       16.5283617506  TIP3      4422            0.0000000000
     30616      4558  TIP3      H2             12.1189616387       49.0598629393       15.4065343641  TIP3      4422            0.0000000000
     30617      4559  TIP3      OH2            14.1127649282       50.8141462702        5.1209505081  TIP3      4423            0.0000000000
     30618      4559  TIP3      H1             14.3718883972       50.4430120279        5.9998156517  TIP3      4423            0.0000000000
     30619      4559  TIP3      H2             13.2041535808       50.4817424060        5.0491595147  TIP3      4423            0.0000000000
     30620      4560  TIP3      OH2            14.8119696318       53.5974539879       17.8748002119  TIP3      4424            0.0000000000
     30621      4560  TIP3      H1             13.9845724635       53.0814353940       18.0003964986  TIP3      4424            0.0000000000
     30622      4560  TIP3      H2             14.5499798893       54.2672129355       17.2048031260  TIP3      4424            0.0000000000
     30623      4561  TIP3      OH2            18.9019015673       55.1925153651        5.0193344924  TIP3      4425            0.0000000000
     30624      4561  TIP3      H1             19.5125444395       55.9560589791        5.0450122536  TIP3      4425            0.0000000000
     30625      4561  TIP3      H2             18.0458785618       55.6431049979        5.2001304474  TIP3      4425            0.0000000000
     30626      4562  TIP3      OH2             2.9585329340       41.2587267056       17.4565137035  TIP3      4426            0.0000000000
     30627      4562  TIP3      H1              2.3845767108       41.8484289180       17.9990933259  TIP3      4426            0.0000000000
     30628      4562  TIP3      H2              2.8014675677       40.3934267053       17.8644815732  TIP3      4426            0.0000000000
     30629      4563  TIP3      OH2            14.9992236073       49.3577306846        7.1980692260  TIP3      4427            0.0000000000
     30630      4563  TIP3      H1             14.7982340954       48.5271371790        7.6931364055  TIP3      4427            0.0000000000
     30631      4563  TIP3      H2             15.9408238525       49.1953425313        7.0071973782  TIP3      4427            0.0000000000
     30632      4564  TIP3      OH2             2.2060998595       52.9620341259       15.6158838298  TIP3      4428            0.0000000000
     30633      4564  TIP3      H1              2.9771143960       52.5007522379       15.9828581841  TIP3      4428            0.0000000000
     30634      4564  TIP3      H2              2.1407847034       53.7402343796       16.1878112122  TIP3      4428            0.0000000000
     30635      4565  TIP3      OH2             7.1678839001       51.2204771925        5.7090469484  TIP3      4429            0.0000000000
     30636      4565  TIP3      H1              7.3952715903       50.8464901253        6.5724434586  TIP3      4429            0.0000000000
     30637      4565  TIP3      H2              7.4138683600       52.1598097381        5.8591729205  TIP3      4429            0.0000000000
     30638      4566  TIP3      OH2             3.6616487025       48.5248422118        6.4170943545  TIP3      4430            0.0000000000
     30639      4566  TIP3      H1              2.9048687158       49.0588441684        6.7634124356  TIP3      4430            0.0000000000
     30640      4566  TIP3      H2              4.0356097186       49.1510985465        5.7771229512  TIP3      4430            0.0000000000
     30641      4567  TIP3      OH2            11.7411876700       41.5033390514       16.2949555476  TIP3      4431            0.0000000000
     30642      4567  TIP3      H1             12.4896527448       41.6151891402       16.9207530746  TIP3      4431            0.0000000000
     30643      4567  TIP3      H2             11.3428698612       40.6793554056       16.6285333914  TIP3      4431            0.0000000000
     30644      4568  TIP3      OH2            11.6694877986       40.6874258318        7.9459312733  TIP3      4432            0.0000000000
     30645      4568  TIP3      H1             12.1485689378       41.1255708500        7.1966975760  TIP3      4432            0.0000000000
     30646      4568  TIP3      H2             12.0636910805       41.1810194683        8.7088790514  TIP3      4432            0.0000000000
     30647      4569  TIP3      OH2            10.0472910821       52.6860278359        6.1954772562  TIP3      4433            0.0000000000
     30648      4569  TIP3      H1              9.2708310989       53.2542888203        6.3824133482  TIP3      4433            0.0000000000
     30649      4569  TIP3      H2             10.3052156031       53.0414334197        5.3187667566  TIP3      4433            0.0000000000
     30650      4570  TIP3      OH2             9.5340076962       42.6064988937        8.9320076188  TIP3      4434            0.0000000000
     30651      4570  TIP3      H1             10.1367297179       43.3528542446        9.1065515231  TIP3      4434            0.0000000000
     30652      4570  TIP3      H2              9.5090118715       42.1486280694        9.7926602486  TIP3      4434            0.0000000000
     30653      4571  TIP3      OH2            10.2442587608       43.7702737845       17.9054629337  TIP3      4435            0.0000000000
     30654      4571  TIP3      H1             10.4657765912       44.1804583325       18.7569715689  TIP3      4435            0.0000000000
     30655      4571  TIP3      H2             10.8062545657       42.9772241856       17.8601601363  TIP3      4435            0.0000000000
     30656      4572  TIP3      OH2             9.9940264353       38.9882167699        9.4474015350  TIP3      4436            0.0000000000
     30657      4572  TIP3      H1              9.3569961305       39.6685533133        9.7349243516  TIP3      4436            0.0000000000
     30658      4572  TIP3      H2             10.5949736013       39.5767813389        8.9437099167  TIP3      4436            0.0000000000
     30659      4573  TIP3      OH2             7.5635132646       53.8519184923        6.1962020134  TIP3      4437            0.0000000000
     30660      4573  TIP3      H1              7.8540326263       54.7314224207        5.8642073220  TIP3      4437            0.0000000000
     30661      4573  TIP3      H2              7.1863502301       54.1024183185        7.0643790134  TIP3      4437            0.0000000000
     30662      4574  TIP3      OH2             5.8764073127       40.4012554295        6.3566973932  TIP3      4438            0.0000000000
     30663      4574  TIP3      H1              5.7250018777       41.2817345468        6.7736094072  TIP3      4438            0.0000000000
     30664      4574  TIP3      H2              6.8379632250       40.3307866707        6.4662859713  TIP3      4438            0.0000000000
     30665      4575  TIP3      OH2            15.9834143453       41.2473257482       18.4014840395  TIP3      4439            0.0000000000
     30666      4575  TIP3      H1             14.9982220014       41.2637226498       18.3783690925  TIP3      4439            0.0000000000
     30667      4575  TIP3      H2             16.1299869794       41.6709380574       17.5262910730  TIP3      4439            0.0000000000
     30668      4576  TIP3      OH2            14.6076545955       45.1613759510       12.0733005479  TIP3      4440            0.0000000000
     30669      4576  TIP3      H1             14.0096608352       44.8918113495       12.7977637179  TIP3      4440            0.0000000000
     30670      4576  TIP3      H2             15.4704909613       44.8316983346       12.4242956598  TIP3      4440            0.0000000000
     30671      4577  TIP3      OH2             4.4299386733       51.5154413680        4.7420650880  TIP3      4441            0.0000000000
     30672      4577  TIP3      H1              5.3615298937       51.4712555920        5.0245792726  TIP3      4441            0.0000000000
     30673      4577  TIP3      H2              4.4925190590       51.3204592518        3.7972639465  TIP3      4441            0.0000000000
     30674      4578  TIP3      OH2             2.8613600133       43.6666936642        4.4408955961  TIP3      4442            0.0000000000
     30675      4578  TIP3      H1              2.7332009062       44.6041665009        4.2452423623  TIP3      4442            0.0000000000
     30676      4578  TIP3      H2              2.2745373942       43.2300534659        3.8128120515  TIP3      4442            0.0000000000
     30677      4579  TIP3      OH2            15.9558031194       54.6533911331       14.0707635150  TIP3      4443            0.0000000000
     30678      4579  TIP3      H1             15.8729625513       55.3043580497       13.3455063099  TIP3      4443            0.0000000000
     30679      4579  TIP3      H2             16.9340679409       54.5479156188       14.0863018897  TIP3      4443            0.0000000000
     30680      4580  TIP3      OH2             3.4316039805       38.6309960081       12.8793056904  TIP3      4444            0.0000000000
     30681      4580  TIP3      H1              3.3828086963       38.5180047816       11.9085195129  TIP3      4444            0.0000000000
     30682      4580  TIP3      H2              3.1679597422       37.7179946602       13.1580667317  TIP3      4444            0.0000000000
     30683      4581  TIP3      OH2             2.6394758860       52.8693169470        9.2718924717  TIP3      4445            0.0000000000
     30684      4581  TIP3      H1              1.8377092476       53.0347594305        9.7880027417  TIP3      4445            0.0000000000
     30685      4581  TIP3      H2              2.3217236365       53.1363899762        8.3777254897  TIP3      4445            0.0000000000
     30686      4582  TIP3      OH2             1.9746085890       55.4603506046       20.6792170745  TIP3      4446            0.0000000000
     30687      4582  TIP3      H1              1.3761155172       54.9548276491       21.2457847480  TIP3      4446            0.0000000000
     30688      4582  TIP3      H2              2.5288338685       54.7693375873       20.2887037291  TIP3      4446            0.0000000000
     30689      4583  TIP3      OH2             5.8735825900       54.2515524904       21.9119953289  TIP3      4447            0.0000000000
     30690      4583  TIP3      H1              6.5843110080       53.9177381073       22.4879149502  TIP3      4447            0.0000000000
     30691      4583  TIP3      H2              5.9192156278       53.6370948162       21.1658411280  TIP3      4447            0.0000000000
     30692      4584  TIP3      OH2            12.3776430585       52.8302058916       20.7317906584  TIP3      4448            0.0000000000
     30693      4584  TIP3      H1             12.0117780506       51.9485334361       20.9946290237  TIP3      4448            0.0000000000
     30694      4584  TIP3      H2             13.2498442675       52.8410297500       21.1862853795  TIP3      4448            0.0000000000
     30695      4585  TIP3      OH2            15.2727030782       53.0029536954        3.2659805546  TIP3      4449            0.0000000000
     30696      4585  TIP3      H1             14.9096432627       52.2995083099        3.8448406460  TIP3      4449            0.0000000000
     30697      4585  TIP3      H2             16.1423735098       52.6253917862        3.0391670341  TIP3      4449            0.0000000000
     30698      4586  TIP3      OH2             0.7818084735       48.6369976892       21.7786583329  TIP3      4450            0.0000000000
     30699      4586  TIP3      H1              0.6135261006       47.9313338959       21.1318244178  TIP3      4450            0.0000000000
     30700      4586  TIP3      H2             -0.0210725390       49.1658410228       21.6369874088  TIP3      4450            0.0000000000
     30701      4587  TIP3      OH2             5.9907049995       49.3207691466        2.9787647656  TIP3      4451            0.0000000000
     30702      4587  TIP3      H1              6.2275330580       49.1349180597        3.8960738613  TIP3      4451            0.0000000000
     30703      4587  TIP3      H2              6.2664817911       48.4936842775        2.5234032419  TIP3      4451            0.0000000000
     30704      4588  TIP3      OH2             7.9261497739       48.8496215642       20.1871998979  TIP3      4452            0.0000000000
     30705      4588  TIP3      H1              7.6637419848       49.4253606826       19.4278960872  TIP3      4452            0.0000000000
     30706      4588  TIP3      H2              7.8067656434       47.9248334951       19.8611816246  TIP3      4452            0.0000000000
     30707      4589  TIP3      OH2            13.7966003603       48.8660925316       18.1312508880  TIP3      4453            0.0000000000
     30708      4589  TIP3      H1             14.5893225917       49.4226573553       18.2103655803  TIP3      4453            0.0000000000
     30709      4589  TIP3      H2             13.1160008051       49.5410081374       18.2660547204  TIP3      4453            0.0000000000
     30710      4590  TIP3      OH2             1.7442634727       46.1233478403       20.6231517454  TIP3      4454            0.0000000000
     30711      4590  TIP3      H1              2.3915902321       45.4013896145       20.5004831372  TIP3      4454            0.0000000000
     30712      4590  TIP3      H2              2.2074124533       46.7196382855       21.2255908633  TIP3      4454            0.0000000000
     30713      4591  TIP3      OH2             7.0622052362       47.1568659293        6.0682049094  TIP3      4455            0.0000000000
     30714      4591  TIP3      H1              6.3490716048       46.6830073902        6.5436004661  TIP3      4455            0.0000000000
     30715      4591  TIP3      H2              7.3297028948       46.5220664638        5.3712636230  TIP3      4455            0.0000000000
     30716      4592  TIP3      OH2             5.9096950289       44.8809749641       17.2251906041  TIP3      4456            0.0000000000
     30717      4592  TIP3      H1              5.4643364234       45.7504665416       17.3574733683  TIP3      4456            0.0000000000
     30718      4592  TIP3      H2              6.8086715073       45.1854686796       16.9656064402  TIP3      4456            0.0000000000
     30719      4593  TIP3      OH2             7.9891234641       45.5168286662        4.0388115951  TIP3      4457            0.0000000000
     30720      4593  TIP3      H1              7.9828132497       46.1772590452        3.3238664117  TIP3      4457            0.0000000000
     30721      4593  TIP3      H2              8.9404581370       45.5287954004        4.2814094621  TIP3      4457            0.0000000000
     30722      4594  TIP3      OH2            11.5693932974       48.1955448805       21.4196080619  TIP3      4458            0.0000000000
     30723      4594  TIP3      H1             12.4058776163       47.9548970847       20.9788943045  TIP3      4458            0.0000000000
     30724      4594  TIP3      H2             10.9768198788       47.4622634251       21.2366356550  TIP3      4458            0.0000000000
     30725      4595  TIP3      OH2            17.3924803685       48.1489950047        2.7998003626  TIP3      4459            0.0000000000
     30726      4595  TIP3      H1             16.8390889365       48.1593876539        2.0027216155  TIP3      4459            0.0000000000
     30727      4595  TIP3      H2             17.6033552901       49.0926593177        2.9002070909  TIP3      4459            0.0000000000
     30728      4596  TIP3      OH2             6.6151863644       43.0028453767       19.0297924556  TIP3      4460            0.0000000000
     30729      4596  TIP3      H1              6.7252292242       42.1970954491       18.4802479838  TIP3      4460            0.0000000000
     30730      4596  TIP3      H2              6.3559808997       43.6677638736       18.3550931739  TIP3      4460            0.0000000000
     30731      4597  TIP3      OH2             6.9662047026       41.0209422092       16.9735588707  TIP3      4461            0.0000000000
     30732      4597  TIP3      H1              7.6147913721       41.1501276313       16.2468960540  TIP3      4461            0.0000000000
     30733      4597  TIP3      H2              6.1448381629       41.2678598465       16.4964837396  TIP3      4461            0.0000000000
     30734      4598  TIP3      OH2             8.3085895898       46.4050477179       16.7118970034  TIP3      4462            0.0000000000
     30735      4598  TIP3      H1              9.1588340586       46.6344072824       16.3043060577  TIP3      4462            0.0000000000
     30736      4598  TIP3      H2              7.7544399822       47.1195619513       16.3241878374  TIP3      4462            0.0000000000
     30737      4599  TIP3      OH2            14.5696959649       47.2748848726       20.1426797992  TIP3      4463            0.0000000000
     30738      4599  TIP3      H1             14.2802810858       47.6818525962       19.2979270537  TIP3      4463            0.0000000000
     30739      4599  TIP3      H2             15.5265406054       47.1254927731       19.9539577006  TIP3      4463            0.0000000000
     30740      4600  TIP3      OH2             4.2252752076       44.0661104564       20.4395072933  TIP3      4464            0.0000000000
     30741      4600  TIP3      H1              4.0234329063       43.1260938266       20.6283049425  TIP3      4464            0.0000000000
     30742      4600  TIP3      H2              5.1112635369       44.0097446813       20.0422804473  TIP3      4464            0.0000000000
     30743      4601  TIP3      OH2             7.9946455465       38.3848197793       16.8176786031  TIP3      4465            0.0000000000
     30744      4601  TIP3      H1              7.5122543981       39.2273416812       16.9797629208  TIP3      4465            0.0000000000
     30745      4601  TIP3      H2              7.2955632631       37.8458053235       16.4082606461  TIP3      4465            0.0000000000
     30746      4602  TIP3      OH2             8.9687050837       42.4486647699       21.1226645380  TIP3      4466            0.0000000000
     30747      4602  TIP3      H1              8.4294175322       42.0686375089       21.8493623329  TIP3      4466            0.0000000000
     30748      4602  TIP3      H2              8.3292673947       42.3832834357       20.3873985163  TIP3      4466            0.0000000000
     30749      4603  TIP3      OH2            11.7340553342       41.8582061591       20.0458546657  TIP3      4467            0.0000000000
     30750      4603  TIP3      H1             10.8156969474       41.6177501675       20.2422550336  TIP3      4467            0.0000000000
     30751      4603  TIP3      H2             12.2292816904       41.2892882536       20.6769294365  TIP3      4467            0.0000000000
     30752      4604  TIP3      OH2            13.0858563428       40.0762057547       21.7543173094  TIP3      4468            0.0000000000
     30753      4604  TIP3      H1             12.9725800350       39.1292331891       21.5095696356  TIP3      4468            0.0000000000
     30754      4604  TIP3      H2             13.7595601546       40.0000873471       22.4335338408  TIP3      4468            0.0000000000
     30755      4605  TIP3      OH2             2.8844079703       41.4634273346       21.1199104171  TIP3      4469            0.0000000000
     30756      4605  TIP3      H1              3.0010504663       40.8615352191       20.3647669668  TIP3      4469            0.0000000000
     30757      4605  TIP3      H2              2.2971399446       40.9344146876       21.6813065674  TIP3      4469            0.0000000000
     30758      4606  TIP3      OH2             7.4212217432       37.4359032760       19.3220189711  TIP3      4470            0.0000000000
     30759      4606  TIP3      H1              7.9681083472       36.6283530006       19.3703463286  TIP3      4470            0.0000000000
     30760      4606  TIP3      H2              7.7756781213       37.8381802385       18.5034535660  TIP3      4470            0.0000000000
     30761      4607  TIP3      OH2             8.0850806085       56.3446664978        5.3178382855  TIP3      4471            0.0000000000
     30762      4607  TIP3      H1              8.7761293871       56.9192433214        5.6814847304  TIP3      4471            0.0000000000
     30763      4607  TIP3      H2              7.7148720288       56.8677854332        4.5993323483  TIP3      4471            0.0000000000
     30764      4608  TIP3      OH2             1.6616393072       49.6241298519        3.9002232752  TIP3      4472            0.0000000000
     30765      4608  TIP3      H1              1.8947019797       50.2148845697        4.6287653800  TIP3      4472            0.0000000000
     30766      4608  TIP3      H2              1.5480436972       50.2430768117        3.1515291623  TIP3      4472            0.0000000000
     30767      4609  TIP3      OH2            66.2168956112       55.8692661365        9.3566448716  TIP3      4473            0.0000000000
     30768      4609  TIP3      H1             65.4436269569       55.2940780254        9.3611833627  TIP3      4473            0.0000000000
     30769      4609  TIP3      H2             66.8004570513       55.4014425768        9.9805631193  TIP3      4473            0.0000000000
     30770      4610  TIP3      OH2             0.9571359294       54.2024770059       11.3462678023  TIP3      4474            0.0000000000
     30771      4610  TIP3      H1              0.8264253288       53.3306099184       11.7564343877  TIP3      4474            0.0000000000
     30772      4610  TIP3      H2              1.2257579116       54.7353477480       12.1214860199  TIP3      4474            0.0000000000
     30773      4611  TIP3      OH2            18.6635120936       54.6748501571       14.3002107597  TIP3      4475            0.0000000000
     30774      4611  TIP3      H1             18.9469188482       54.8754803871       15.2073487130  TIP3      4475            0.0000000000
     30775      4611  TIP3      H2             19.4700461649       54.9088005264       13.8127249870  TIP3      4475            0.0000000000
     30776      4612  TIP3      OH2            18.0546558291       54.2451339120       17.2183100239  TIP3      4476            0.0000000000
     30777      4612  TIP3      H1             17.6533753616       53.6818341331       16.5184456176  TIP3      4476            0.0000000000
     30778      4612  TIP3      H2             18.2115892593       53.5645377232       17.8931216130  TIP3      4476            0.0000000000
     30779      4613  TIP3      OH2            16.7791276770       50.6310331456       21.9556409652  TIP3      4477            0.0000000000
     30780      4613  TIP3      H1             16.0553840476       50.3653332720       22.5724860393  TIP3      4477            0.0000000000
     30781      4613  TIP3      H2             16.2937439241       50.8476083427       21.1446183282  TIP3      4477            0.0000000000
     30782      4614  TIP3      OH2            17.7067531629       48.5100962547        6.7758255866  TIP3      4478            0.0000000000
     30783      4614  TIP3      H1             18.5452114715       48.9176798793        7.0929552113  TIP3      4478            0.0000000000
     30784      4614  TIP3      H2             17.5645189411       47.8806723283        7.5147891504  TIP3      4478            0.0000000000
     30785      4615  TIP3      OH2            18.3059206167       47.2898042670        9.2040872313  TIP3      4479            0.0000000000
     30786      4615  TIP3      H1             17.5076263602       46.8116122337        9.5075769474  TIP3      4479            0.0000000000
     30787      4615  TIP3      H2             18.8430551439       47.2399561417       10.0131412651  TIP3      4479            0.0000000000
     30788      4616  TIP3      OH2            18.0851170216       49.4489471351       13.9294471514  TIP3      4480            0.0000000000
     30789      4616  TIP3      H1             18.6564449486       48.6782110058       13.7452492443  TIP3      4480            0.0000000000
     30790      4616  TIP3      H2             18.5731920990       50.2086515579       13.5545781956  TIP3      4480            0.0000000000
     30791      4617  TIP3      OH2            16.5562239113       52.1500090855       16.3843112087  TIP3      4481            0.0000000000
     30792      4617  TIP3      H1             15.9584412324       52.7329227207       16.9049366062  TIP3      4481            0.0000000000
     30793      4617  TIP3      H2             16.0558158997       51.9921841460       15.5496405222  TIP3      4481            0.0000000000
     30794      4618  TIP3      OH2            18.6582669511       46.9100339029        4.8029936444  TIP3      4482            0.0000000000
     30795      4618  TIP3      H1             18.1933895198       47.3215582655        4.0415670015  TIP3      4482            0.0000000000
     30796      4618  TIP3      H2             18.2648249540       47.4286544524        5.5346265469  TIP3      4482            0.0000000000
     30797      4619  TIP3      OH2            17.3863494164       43.7265354857        4.0072855806  TIP3      4483            0.0000000000
     30798      4619  TIP3      H1             17.6376529204       44.3399454165        3.2961116169  TIP3      4483            0.0000000000
     30799      4619  TIP3      H2             16.6873718119       43.2172302333        3.5818692093  TIP3      4483            0.0000000000
     30800      4620  TIP3      OH2            16.3640136790       45.4714944073        9.7801862926  TIP3      4484            0.0000000000
     30801      4620  TIP3      H1             16.4306434626       44.5562574392        9.4342373689  TIP3      4484            0.0000000000
     30802      4620  TIP3      H2             16.0234238001       45.3123236851       10.6822431524  TIP3      4484            0.0000000000
     30803      4621  TIP3      OH2             1.1498066100       47.1843238585       14.3898260453  TIP3      4485            0.0000000000
     30804      4621  TIP3      H1              1.1316098891       47.0727579307       13.4066645855  TIP3      4485            0.0000000000
     30805      4621  TIP3      H2              2.1278427583       47.1468567579       14.5351706778  TIP3      4485            0.0000000000
     30806      4622  TIP3      OH2            17.2356026057       46.9958528074       19.5806390743  TIP3      4486            0.0000000000
     30807      4622  TIP3      H1             17.8840965736       46.3051040067       19.8307957871  TIP3      4486            0.0000000000
     30808      4622  TIP3      H2             17.8466991929       47.7343735444       19.3736308332  TIP3      4486            0.0000000000
     30809      4623  TIP3      OH2            18.8081479661       44.8583136898       19.9107050267  TIP3      4487            0.0000000000
     30810      4623  TIP3      H1             17.9379609819       44.5975249858       19.5530112712  TIP3      4487            0.0000000000
     30811      4623  TIP3      H2             19.0493731925       43.9965138036       20.3253759822  TIP3      4487            0.0000000000
     30812      4624  TIP3      OH2            16.4021096814       42.9944828382        8.7458479029  TIP3      4488            0.0000000000
     30813      4624  TIP3      H1             15.9773505486       42.1255328296        8.6195576222  TIP3      4488            0.0000000000
     30814      4624  TIP3      H2             16.9771501485       43.0257956935        7.9660157497  TIP3      4488            0.0000000000
     30815      4625  TIP3      OH2            16.7115899734       43.9817525816       13.1103586415  TIP3      4489            0.0000000000
     30816      4625  TIP3      H1             17.5456946500       44.2768253214       13.5647239597  TIP3      4489            0.0000000000
     30817      4625  TIP3      H2             16.2654491489       43.5640913545       13.8920187568  TIP3      4489            0.0000000000
     30818      4626  TIP3      OH2            17.3669468626       44.3935869506       17.0806125807  TIP3      4490            0.0000000000
     30819      4626  TIP3      H1             16.5919138015       43.8813028576       16.7676350853  TIP3      4490            0.0000000000
     30820      4626  TIP3      H2             17.3873884510       45.0781828862       16.3688137759  TIP3      4490            0.0000000000
     30821      4627  TIP3      OH2             1.3167715388       42.7359264309       18.9892277430  TIP3      4491            0.0000000000
     30822      4627  TIP3      H1              1.4095464565       42.5900556038       19.9404350284  TIP3      4491            0.0000000000
     30823      4627  TIP3      H2              0.4921229427       42.2750854150       18.7838565168  TIP3      4491            0.0000000000
     30824      4628  TIP3      OH2            18.7272343838       38.1997911099       22.0040110012  TIP3      4492            0.0000000000
     30825      4628  TIP3      H1             19.4212738392       37.9664410173       21.3656858536  TIP3      4492            0.0000000000
     30826      4628  TIP3      H2             18.2126084218       38.8296860609       21.4642619887  TIP3      4492            0.0000000000
     30827      4629  TIP3      OH2            15.6141964091       40.0694448245        8.4812963507  TIP3      4493            0.0000000000
     30828      4629  TIP3      H1             16.4522282124       39.8730055494        8.9313686552  TIP3      4493            0.0000000000
     30829      4629  TIP3      H2             15.3669487405       39.1908066481        8.1472690092  TIP3      4493            0.0000000000
     30830      4630  TIP3      OH2             1.9862350697       40.9662844552       13.6287333115  TIP3      4494            0.0000000000
     30831      4630  TIP3      H1              2.4269210740       40.0987250566       13.5377701467  TIP3      4494            0.0000000000
     30832      4630  TIP3      H2              2.7323551316       41.5976430415       13.5861401168  TIP3      4494            0.0000000000
     30833      4631  TIP3      OH2             0.5991973619       43.8728169188       14.4921474641  TIP3      4495            0.0000000000
     30834      4631  TIP3      H1              1.3257501968       43.2295678893       14.5670338160  TIP3      4495            0.0000000000
     30835      4631  TIP3      H2              1.1279082768       44.6749479452       14.3289180394  TIP3      4495            0.0000000000
     30836      4632  TIP3      OH2            17.6116851606       39.9345173631       20.1658680612  TIP3      4496            0.0000000000
     30837      4632  TIP3      H1             16.9326658924       40.3940377534       19.6058181858  TIP3      4496            0.0000000000
     30838      4632  TIP3      H2             17.8271554673       39.1980633109       19.5531430504  TIP3      4496            0.0000000000
     30839      4633  TIP3      OH2            18.2639594002       40.3507415609        4.8461637504  TIP3      4497            0.0000000000
     30840      4633  TIP3      H1             17.7974976375       40.3730811761        4.0009589534  TIP3      4497            0.0000000000
     30841      4633  TIP3      H2             19.0010837423       40.9325678546        4.6252750293  TIP3      4497            0.0000000000
     30842      4634  TIP3      OH2             0.5107006591       40.1918594810        7.8757165330  TIP3      4498            0.0000000000
     30843      4634  TIP3      H1             -0.0974395261       40.9243312046        8.1551404826  TIP3      4498            0.0000000000
     30844      4634  TIP3      H2              1.1013477911       40.6276470097        7.2265389818  TIP3      4498            0.0000000000
     30845      4635  TIP3      OH2            15.8079908210       55.1677200880       10.1430849193  TIP3      4499            0.0000000000
     30846      4635  TIP3      H1             15.5457037515       54.3358609461       10.5761627147  TIP3      4499            0.0000000000
     30847      4635  TIP3      H2             15.8941034128       55.7777302186       10.8972375965  TIP3      4499            0.0000000000
     30848      4636  TIP3      OH2            66.7381953285       38.7789386099       16.2717987667  TIP3      4500            0.0000000000
     30849      4636  TIP3      H1             65.8840360700       38.3891572897       16.5526746756  TIP3      4500            0.0000000000
     30850      4636  TIP3      H2             66.4838395851       39.6917638192       16.0751042983  TIP3      4500            0.0000000000
     30851      4637  TIP3      OH2             2.8480259452       52.0213943107       20.5807338757  TIP3      4501            0.0000000000
     30852      4637  TIP3      H1              2.3577480355       51.3357556482       20.0871618226  TIP3      4501            0.0000000000
     30853      4637  TIP3      H2              3.2983762624       51.4864126212       21.2458594922  TIP3      4501            0.0000000000
     30854      4638  TIP3      OH2             5.5996314170       53.3267981960       16.7210041520  TIP3      4502            0.0000000000
     30855      4638  TIP3      H1              5.4108622513       54.2767036152       16.5571528383  TIP3      4502            0.0000000000
     30856      4638  TIP3      H2              6.5696728598       53.3275869934       16.5665322517  TIP3      4502            0.0000000000
     30857      4639  TIP3      OH2             9.7118556179       54.4270984398       19.3635875017  TIP3      4503            0.0000000000
     30858      4639  TIP3      H1              9.8048195524       54.3025716995       20.3337796731  TIP3      4503            0.0000000000
     30859      4639  TIP3      H2             10.5802039147       54.8342033864       19.1833263145  TIP3      4503            0.0000000000
     30860      4640  TIP3      OH2            12.0376202402       56.2691527868       19.2294576959  TIP3      4504            0.0000000000
     30861      4640  TIP3      H1             12.7642842627       55.8938178393       18.7095588983  TIP3      4504            0.0000000000
     30862      4640  TIP3      H2             12.5068954663       56.6993532165       19.9608059897  TIP3      4504            0.0000000000
     30863      4641  TIP3      OH2            17.4190709760       37.7071968320       18.5722160566  TIP3      4505            0.0000000000
     30864      4641  TIP3      H1             16.8788727298       37.9769629282       17.8011196137  TIP3      4505            0.0000000000
     30865      4641  TIP3      H2             17.7916524908       36.8489101248       18.2872976893  TIP3      4505            0.0000000000
     30866      4642  TIP3      OH2             2.8787266587       56.3638939171       16.6047316340  TIP3      4506            0.0000000000
     30867      4642  TIP3      H1              2.0026609445       56.7541794545       16.3480660118  TIP3      4506            0.0000000000
     30868      4642  TIP3      H2              2.9692577412       56.7181869606       17.5093781148  TIP3      4506            0.0000000000
     30869      4643  TIP3      OH2             5.5564168944       56.0106758140       15.8508374465  TIP3      4507            0.0000000000
     30870      4643  TIP3      H1              4.6082719059       56.1853559856       16.0554909373  TIP3      4507            0.0000000000
     30871      4643  TIP3      H2              5.6228301904       56.4722627951       14.9865018660  TIP3      4507            0.0000000000
     30872      4644  TIP3      OH2            10.1189354181       55.7284805337       14.8050481975  TIP3      4508            0.0000000000
     30873      4644  TIP3      H1              9.2132609208       56.0503094577       14.9673223504  TIP3      4508            0.0000000000
     30874      4644  TIP3      H2             10.5759868847       56.3680826674       15.3874170825  TIP3      4508            0.0000000000
     30875      4645  TIP3      OH2            12.1408274486       54.3151346768       16.2063923597  TIP3      4509            0.0000000000
     30876      4645  TIP3      H1             11.5774914087       54.7713886356       15.5510366465  TIP3      4509            0.0000000000
     30877      4645  TIP3      H2             12.9887601237       54.7676137133       16.0143351826  TIP3      4509            0.0000000000
     30878      4646  TIP3      OH2            14.5212273759       55.7933463033       16.0467850275  TIP3      4510            0.0000000000
     30879      4646  TIP3      H1             14.5775508204       56.7518586086       15.9542611103  TIP3      4510            0.0000000000
     30880      4646  TIP3      H2             15.0281552537       55.4975246464       15.2516033569  TIP3      4510            0.0000000000
     30881      4647  TIP3      OH2             2.6115027593       54.8285365037       13.5012962055  TIP3      4511            0.0000000000
     30882      4647  TIP3      H1              2.4857992432       54.1252348161       14.1611883663  TIP3      4511            0.0000000000
     30883      4647  TIP3      H2              3.4492113735       54.5603478003       13.0581355832  TIP3      4511            0.0000000000
     30884      4648  TIP3      OH2             4.8488686578       53.9374903881       12.3144211940  TIP3      4512            0.0000000000
     30885      4648  TIP3      H1              4.6444856271       52.9867333422       12.3817353944  TIP3      4512            0.0000000000
     30886      4648  TIP3      H2              5.6713361148       53.9557332370       12.8527595346  TIP3      4512            0.0000000000
     30887      4649  TIP3      OH2             7.1203213000       53.6459956659       13.7740643937  TIP3      4513            0.0000000000
     30888      4649  TIP3      H1              7.4305477184       52.7496416825       13.5328823918  TIP3      4513            0.0000000000
     30889      4649  TIP3      H2              7.2880943756       53.6591379748       14.7271893550  TIP3      4513            0.0000000000
     30890      4650  TIP3      OH2            10.4695447511       39.0636222493       12.6021450088  TIP3      4514            0.0000000000
     30891      4650  TIP3      H1              9.5870937818       38.7150816413       12.8715403477  TIP3      4514            0.0000000000
     30892      4650  TIP3      H2             10.5794694065       38.6540593050       11.7312043053  TIP3      4514            0.0000000000
     30893      4651  TIP3      OH2            15.9443784810       38.0571618021       12.4900875458  TIP3      4515            0.0000000000
     30894      4651  TIP3      H1             16.6025567861       38.5906088219       11.9987739746  TIP3      4515            0.0000000000
     30895      4651  TIP3      H2             15.0970654661       38.4250833353       12.1350185370  TIP3      4515            0.0000000000
     30896      4652  TIP3      OH2            17.6089669560       39.2124618591       10.4892176718  TIP3      4516            0.0000000000
     30897      4652  TIP3      H1             18.0951857072       38.4193911618       10.1419670249  TIP3      4516            0.0000000000
     30898      4652  TIP3      H2             18.2276114766       39.9151175158       10.1974488942  TIP3      4516            0.0000000000
     30899      4653  TIP3      OH2             3.2684416699       37.9643978507       10.2231501324  TIP3      4517            0.0000000000
     30900      4653  TIP3      H1              2.3715566893       37.7973491240        9.9008022015  TIP3      4517            0.0000000000
     30901      4653  TIP3      H2              3.6569820485       37.0575649301       10.1955995985  TIP3      4517            0.0000000000
     30902      4654  TIP3      OH2             1.9760237519       37.8938244352        5.8181672568  TIP3      4518            0.0000000000
     30903      4654  TIP3      H1              2.1329080820       38.7718086757        5.4181364742  TIP3      4518            0.0000000000
     30904      4654  TIP3      H2              1.2363627324       38.0624343215        6.4348675418  TIP3      4518            0.0000000000
     30905      4655  TIP3      OH2             7.6014573123       37.3377696551       10.1749685059  TIP3      4519            0.0000000000
     30906      4655  TIP3      H1              8.4664017261       37.6419824327        9.8390469205  TIP3      4519            0.0000000000
     30907      4655  TIP3      H2              7.2839083923       38.1148596250       10.6459984671  TIP3      4519            0.0000000000
     30908      4656  TIP3      OH2            13.4757203362       38.5194083705       11.3869415438  TIP3      4520            0.0000000000
     30909      4656  TIP3      H1             13.0149030746       38.7810921389       10.5745423567  TIP3      4520            0.0000000000
     30910      4656  TIP3      H2             13.0044596443       37.6913207281       11.6370463237  TIP3      4520            0.0000000000
     30911      4657  TIP3      OH2            14.5638886242       38.0209523928        6.6504446302  TIP3      4521            0.0000000000
     30912      4657  TIP3      H1             13.9408636340       38.7611533361        6.5906497725  TIP3      4521            0.0000000000
     30913      4657  TIP3      H2             14.0376077248       37.3367987156        7.1326655721  TIP3      4521            0.0000000000
     30914      4658  TIP3      OH2             1.6547669898       54.2088441503        7.1787507610  TIP3      4522            0.0000000000
     30915      4658  TIP3      H1              0.8066134072       54.1345176349        6.7226060675  TIP3      4522            0.0000000000
     30916      4658  TIP3      H2              1.8746073995       55.1395217937        6.9677061400  TIP3      4522            0.0000000000
     30917      4659  TIP3      OH2             3.3971450777       39.8862885414        4.6295390089  TIP3      4523            0.0000000000
     30918      4659  TIP3      H1              3.7209635649       40.3975398392        3.8683378882  TIP3      4523            0.0000000000
     30919      4659  TIP3      H2              2.9704079086       40.5552997048        5.2136368306  TIP3      4523            0.0000000000
     30920      4660  TIP3      OH2             9.1855075456       40.6402553425        6.9781182211  TIP3      4524            0.0000000000
     30921      4660  TIP3      H1             10.1251961380       40.4998048972        7.2497194422  TIP3      4524            0.0000000000
     30922      4660  TIP3      H2              9.0241800549       41.4163688168        7.5495156317  TIP3      4524            0.0000000000
     30923      4661  TIP3      OH2            10.9057883585       55.8831574089        4.9510338741  TIP3      4525            0.0000000000
     30924      4661  TIP3      H1             11.8537291642       55.7176967419        4.7559930613  TIP3      4525            0.0000000000
     30925      4661  TIP3      H2             10.5069064875       55.1170537562        4.4832346378  TIP3      4525            0.0000000000
     30926      4662  TIP3      OH2            17.7605489071       54.1220148851        8.3740285785  TIP3      4526            0.0000000000
     30927      4662  TIP3      H1             17.1862309445       53.6882967910        7.7033204449  TIP3      4526            0.0000000000
     30928      4662  TIP3      H2             18.6089290609       53.6729494719        8.2338432627  TIP3      4526            0.0000000000
     30929      4663  TIP3      OH2             2.8197674400       38.9152154204       19.5190727545  TIP3      4527            0.0000000000
     30930      4663  TIP3      H1              2.2388807239       38.1537182027       19.6425168250  TIP3      4527            0.0000000000
     30931      4663  TIP3      H2              3.6344071568       38.6391687435       19.9733059958  TIP3      4527            0.0000000000
     30932      4664  TIP3      OH2             5.3244613699       38.1347038782       22.1786346700  TIP3      4528            0.0000000000
     30933      4664  TIP3      H1              5.8902952058       38.3994790112       21.4378850396  TIP3      4528            0.0000000000
     30934      4664  TIP3      H2              5.6253894552       37.2152870942       22.3133045486  TIP3      4528            0.0000000000
     30935      4665  TIP3      OH2             4.0670015691       55.1905578596        3.7659154960  TIP3      4529            0.0000000000
     30936      4665  TIP3      H1              3.2766382607       55.6720875439        3.4487596760  TIP3      4529            0.0000000000
     30937      4665  TIP3      H2              3.7459977514       54.7482636807        4.5636422983  TIP3      4529            0.0000000000
     30938      4666  TIP3      OH2            12.8584786075       37.3701810640       21.0691612442  TIP3      4530            0.0000000000
     30939      4666  TIP3      H1             12.7604567454       36.5410894636       21.5645152629  TIP3      4530            0.0000000000
     30940      4666  TIP3      H2             13.8330171357       37.3731756300       20.9541822726  TIP3      4530            0.0000000000
     30941      4667  TIP3      OH2            16.3363185587       53.7650883716       20.1711743060  TIP3      4531            0.0000000000
     30942      4667  TIP3      H1             15.9516032864       53.6207529576       19.2732756725  TIP3      4531            0.0000000000
     30943      4667  TIP3      H2             16.0869496339       54.7049398025       20.3472102272  TIP3      4531            0.0000000000
     30944      4668  TIP3      OH2            31.3558718714       47.8202807779        9.9525924963  TIP3      4532            0.0000000000
     30945      4668  TIP3      H1             31.0148163161       48.6532370347        9.5425448755  TIP3      4532            0.0000000000
     30946      4668  TIP3      H2             30.5944559677       47.2298801606        9.8692790081  TIP3      4532            0.0000000000
     30947      4669  TIP3      OH2            29.3305413710       46.2187362504       13.3796596271  TIP3      4533            0.0000000000
     30948      4669  TIP3      H1             29.6806476462       45.9004240765       14.2436872767  TIP3      4533            0.0000000000
     30949      4669  TIP3      H2             29.0011772723       45.3966166432       12.9881978361  TIP3      4533            0.0000000000
     30950      4670  TIP3      OH2            22.2737799029       46.5650331413       15.3203240572  TIP3      4534            0.0000000000
     30951      4670  TIP3      H1             22.2170916813       45.7055903472       15.7534321262  TIP3      4534            0.0000000000
     30952      4670  TIP3      H2             23.2275496740       46.5939796524       15.1070072987  TIP3      4534            0.0000000000
     30953      4671  TIP3      OH2            33.4554857749       49.2396534485       12.1094269608  TIP3      4535            0.0000000000
     30954      4671  TIP3      H1             32.7738543960       48.8404297800       11.5428155039  TIP3      4535            0.0000000000
     30955      4671  TIP3      H2             33.1390885489       50.1500649268       12.2416986780  TIP3      4535            0.0000000000
     30956      4672  TIP3      OH2            23.2365024427       50.8953592340       13.4119158940  TIP3      4536            0.0000000000
     30957      4672  TIP3      H1             22.9705230167       50.0643763054       12.9823764111  TIP3      4536            0.0000000000
     30958      4672  TIP3      H2             24.2021103457       50.8997719151       13.2266530426  TIP3      4536            0.0000000000
     30959      4673  TIP3      OH2            19.8667947489       44.1330727771        9.0744966051  TIP3      4537            0.0000000000
     30960      4673  TIP3      H1             19.4966926649       45.0282939563        9.1152261205  TIP3      4537            0.0000000000
     30961      4673  TIP3      H2             19.3157448374       43.7488246692        8.3761446763  TIP3      4537            0.0000000000
     30962      4674  TIP3      OH2            19.8158971578       46.3298457822       11.5519924352  TIP3      4538            0.0000000000
     30963      4674  TIP3      H1             20.0948074614       45.4230497147       11.7864988488  TIP3      4538            0.0000000000
     30964      4674  TIP3      H2             20.6062786756       46.6614585398       11.1023034975  TIP3      4538            0.0000000000
     30965      4675  TIP3      OH2            30.7719891553       54.9888075016       11.8106965163  TIP3      4539            0.0000000000
     30966      4675  TIP3      H1             31.2915657195       54.4289293367       11.1842461551  TIP3      4539            0.0000000000
     30967      4675  TIP3      H2             30.3985322742       54.2884120748       12.3589275555  TIP3      4539            0.0000000000
     30968      4676  TIP3      OH2            27.9034775745       49.6914160963       14.3477666250  TIP3      4540            0.0000000000
     30969      4676  TIP3      H1             28.3294408693       49.2159488769       13.6205114713  TIP3      4540            0.0000000000
     30970      4676  TIP3      H2             28.6947010354       49.8873790102       14.8988922852  TIP3      4540            0.0000000000
     30971      4677  TIP3      OH2            36.7703203832       40.8395541313       14.2404494977  TIP3      4541            0.0000000000
     30972      4677  TIP3      H1             36.9584323607       41.2847943280       15.0949212618  TIP3      4541            0.0000000000
     30973      4677  TIP3      H2             37.5671425043       41.0760320074       13.7326882907  TIP3      4541            0.0000000000
     30974      4678  TIP3      OH2            31.8332840858       43.3390473277       14.3700957333  TIP3      4542            0.0000000000
     30975      4678  TIP3      H1             31.9862291558       42.3722336055       14.2805352741  TIP3      4542            0.0000000000
     30976      4678  TIP3      H2             31.6564401857       43.5569976100       13.4294526930  TIP3      4542            0.0000000000
     30977      4679  TIP3      OH2            24.9285993973       41.3096783413       11.0604218614  TIP3      4543            0.0000000000
     30978      4679  TIP3      H1             24.8091583102       42.2009181905       10.6777730072  TIP3      4543            0.0000000000
     30979      4679  TIP3      H2             24.2175800397       40.8192949650       10.6009241770  TIP3      4543            0.0000000000
     30980      4680  TIP3      OH2            32.0989486877       41.8818180276       10.2935969325  TIP3      4544            0.0000000000
     30981      4680  TIP3      H1             32.7193502873       41.3174615354       10.8128666277  TIP3      4544            0.0000000000
     30982      4680  TIP3      H2             32.7453684038       42.3687710960        9.7427826015  TIP3      4544            0.0000000000
     30983      4681  TIP3      OH2            21.1211972927       43.7867619982       12.1405003851  TIP3      4545            0.0000000000
     30984      4681  TIP3      H1             21.8032964971       43.3452341269       12.6849847896  TIP3      4545            0.0000000000
     30985      4681  TIP3      H2             21.3439587163       43.4537057883       11.2439364406  TIP3      4545            0.0000000000
     30986      4682  TIP3      OH2            25.5956104388       45.5262464084       11.7807497381  TIP3      4546            0.0000000000
     30987      4682  TIP3      H1             26.5367381488       45.2947340194       11.7582326237  TIP3      4546            0.0000000000
     30988      4682  TIP3      H2             25.2123654174       44.7749493846       11.2635966883  TIP3      4546            0.0000000000
     30989      4683  TIP3      OH2            37.0331472900       42.2435911950       16.8167019206  TIP3      4547            0.0000000000
     30990      4683  TIP3      H1             36.5520461193       43.0015280546       16.3989559566  TIP3      4547            0.0000000000
     30991      4683  TIP3      H2             37.5203491258       42.6692439166       17.5295343973  TIP3      4547            0.0000000000
     30992      4684  TIP3      OH2            23.6684049925       40.7185297611       15.4392275664  TIP3      4548            0.0000000000
     30993      4684  TIP3      H1             23.2035638414       41.2390396594       14.7525446628  TIP3      4548            0.0000000000
     30994      4684  TIP3      H2             22.9645022278       40.6840985303       16.1204567552  TIP3      4548            0.0000000000
     30995      4685  TIP3      OH2            30.3119184943       50.0466347511        8.8635094649  TIP3      4549            0.0000000000
     30996      4685  TIP3      H1             29.9502801932       50.0094058829        7.9618647094  TIP3      4549            0.0000000000
     30997      4685  TIP3      H2             29.9037696939       50.8661063098        9.2281183182  TIP3      4549            0.0000000000
     30998      4686  TIP3      OH2            25.9244205926       48.1836714101       15.4970894778  TIP3      4550            0.0000000000
     30999      4686  TIP3      H1             25.3496968504       48.8635813405       15.9248332204  TIP3      4550            0.0000000000
     31000      4686  TIP3      H2             26.5956672830       48.7814436065       15.0921076064  TIP3      4550            0.0000000000
     31001      4687  TIP3      OH2            34.4236794940       40.9661546097       11.4238560772  TIP3      4551            0.0000000000
     31002      4687  TIP3      H1             34.6101465465       40.5367724985       12.2698223880  TIP3      4551            0.0000000000
     31003      4687  TIP3      H2             35.0328759321       41.7250328483       11.4531026274  TIP3      4551            0.0000000000
     31004      4688  TIP3      OH2            23.1655533940       42.3812369379       13.3082799867  TIP3      4552            0.0000000000
     31005      4688  TIP3      H1             23.6381082720       43.0824864877       13.8197070272  TIP3      4552            0.0000000000
     31006      4688  TIP3      H2             23.8250354758       42.1290102066       12.6368009978  TIP3      4552            0.0000000000
     31007      4689  TIP3      OH2            24.4108618770       50.2426962786       16.3338340689  TIP3      4553            0.0000000000
     31008      4689  TIP3      H1             24.0898822165       50.6512814537       15.5137720023  TIP3      4553            0.0000000000
     31009      4689  TIP3      H2             23.5785715996       50.1843118238       16.8634684766  TIP3      4553            0.0000000000
     31010      4690  TIP3      OH2            20.1580436252       49.8125118299        7.1644716316  TIP3      4554            0.0000000000
     31011      4690  TIP3      H1             20.2108628231       50.1499625188        6.2363793175  TIP3      4554            0.0000000000
     31012      4690  TIP3      H2             20.1915427802       50.6191858618        7.6970799694  TIP3      4554            0.0000000000
     31013      4691  TIP3      OH2            33.4575701245       51.8876299731       13.0002043431  TIP3      4555            0.0000000000
     31014      4691  TIP3      H1             32.6373434315       51.7346617114       13.5342162126  TIP3      4555            0.0000000000
     31015      4691  TIP3      H2             33.4196482756       52.8518780543       12.9535647309  TIP3      4555            0.0000000000
     31016      4692  TIP3      OH2            34.4124593361       40.7913748851       15.6476851321  TIP3      4556            0.0000000000
     31017      4692  TIP3      H1             33.6110020822       41.1664824575       15.2528411701  TIP3      4556            0.0000000000
     31018      4692  TIP3      H2             35.0745737625       40.9349891189       14.9465764686  TIP3      4556            0.0000000000
     31019      4693  TIP3      OH2            27.0374946836       37.8034392071       13.2569010412  TIP3      4557            0.0000000000
     31020      4693  TIP3      H1             26.8754224381       37.1774737677       12.5344308178  TIP3      4557            0.0000000000
     31021      4693  TIP3      H2             26.1328590551       38.2038176454       13.3092984324  TIP3      4557            0.0000000000
     31022      4694  TIP3      OH2            32.2914055644       53.4611029354       10.2737226487  TIP3      4558            0.0000000000
     31023      4694  TIP3      H1             32.5743792240       52.6237516907        9.8527378689  TIP3      4558            0.0000000000
     31024      4694  TIP3      H2             33.1563804260       53.9294343945       10.3505661394  TIP3      4558            0.0000000000
     31025      4695  TIP3      OH2            33.5884796283       51.3687185169        9.1681857969  TIP3      4559            0.0000000000
     31026      4695  TIP3      H1             33.5951085996       50.7886998322        8.3798668655  TIP3      4559            0.0000000000
     31027      4695  TIP3      H2             33.4646244654       50.7271654993        9.8802618335  TIP3      4559            0.0000000000
     31028      4696  TIP3      OH2            35.2399795138       49.7985307676       17.9389777721  TIP3      4560            0.0000000000
     31029      4696  TIP3      H1             35.4887788783       49.1575425762       17.2398294936  TIP3      4560            0.0000000000
     31030      4696  TIP3      H2             35.3975351336       50.6274658011       17.4561260508  TIP3      4560            0.0000000000
     31031      4697  TIP3      OH2            29.6508950393       46.5803513977        7.4796759050  TIP3      4561            0.0000000000
     31032      4697  TIP3      H1             29.0552184897       47.3628058098        7.4675374059  TIP3      4561            0.0000000000
     31033      4697  TIP3      H2             30.4467900648       46.9490093204        7.0549507431  TIP3      4561            0.0000000000
     31034      4698  TIP3      OH2            29.5954279108       45.9900157865        4.5007142903  TIP3      4562            0.0000000000
     31035      4698  TIP3      H1             30.3223055731       46.2322774650        5.0912630695  TIP3      4562            0.0000000000
     31036      4698  TIP3      H2             29.6304738218       45.0233926100        4.5097274104  TIP3      4562            0.0000000000
     31037      4699  TIP3      OH2            37.4903144878       46.4749695655       16.1104832157  TIP3      4563            0.0000000000
     31038      4699  TIP3      H1             36.7569665012       47.0592066018       15.8427309096  TIP3      4563            0.0000000000
     31039      4699  TIP3      H2             38.0678015005       46.5370329749       15.3143631581  TIP3      4563            0.0000000000
     31040      4700  TIP3      OH2            33.6339597276       47.4464784864        8.6581648039  TIP3      4564            0.0000000000
     31041      4700  TIP3      H1             32.8536413857       47.5287449225        9.2610056544  TIP3      4564            0.0000000000
     31042      4700  TIP3      H2             34.2400124977       46.8921004164        9.1975781917  TIP3      4564            0.0000000000
     31043      4701  TIP3      OH2            33.3809218398       45.3945056954       17.7276676526  TIP3      4565            0.0000000000
     31044      4701  TIP3      H1             33.0532016042       46.1483732550       18.2599771039  TIP3      4565            0.0000000000
     31045      4701  TIP3      H2             32.8710401606       45.5032966621       16.8978192133  TIP3      4565            0.0000000000
     31046      4702  TIP3      OH2            24.3941433592       47.2853855928       10.1173428989  TIP3      4566            0.0000000000
     31047      4702  TIP3      H1             24.3980959252       46.8772959959        9.2288035784  TIP3      4566            0.0000000000
     31048      4702  TIP3      H2             24.9529384016       46.6797748122       10.6348083510  TIP3      4566            0.0000000000
     31049      4703  TIP3      OH2            25.9296097771       50.8226817664       12.9155307943  TIP3      4567            0.0000000000
     31050      4703  TIP3      H1             26.0567931443       50.5302962581       12.0006555048  TIP3      4567            0.0000000000
     31051      4703  TIP3      H2             26.6957387122       50.4225445267       13.3932254510  TIP3      4567            0.0000000000
     31052      4704  TIP3      OH2            24.6602576305       46.2640419813       14.1571096400  TIP3      4568            0.0000000000
     31053      4704  TIP3      H1             25.0300387233       46.1588924951       13.2490355066  TIP3      4568            0.0000000000
     31054      4704  TIP3      H2             25.2672323832       46.9456652868       14.5326508441  TIP3      4568            0.0000000000
     31055      4705  TIP3      OH2            31.5486764457       51.7658273535       14.7972752978  TIP3      4569            0.0000000000
     31056      4705  TIP3      H1             31.3417707237       52.4315043656       15.4758456395  TIP3      4569            0.0000000000
     31057      4705  TIP3      H2             31.0743894200       50.9747056077       15.1402524440  TIP3      4569            0.0000000000
     31058      4706  TIP3      OH2            25.8462182169       50.7803423025       18.6071778144  TIP3      4570            0.0000000000
     31059      4706  TIP3      H1             25.1915929887       51.2986193763       19.1328371996  TIP3      4570            0.0000000000
     31060      4706  TIP3      H2             25.3350061720       50.6236850487       17.7823409749  TIP3      4570            0.0000000000
     31061      4707  TIP3      OH2            32.2861292494       46.5442677764        6.5221863794  TIP3      4571            0.0000000000
     31062      4707  TIP3      H1             32.8752429376       46.8987975415        7.2259588788  TIP3      4571            0.0000000000
     31063      4707  TIP3      H2             32.7178660790       46.9280245983        5.7278453598  TIP3      4571            0.0000000000
     31064      4708  TIP3      OH2            23.0536340306       46.1312345116       17.9518169513  TIP3      4572            0.0000000000
     31065      4708  TIP3      H1             23.0220893091       46.2973035927       18.9167084967  TIP3      4572            0.0000000000
     31066      4708  TIP3      H2             22.1330100842       46.3721755697       17.7684509724  TIP3      4572            0.0000000000
     31067      4709  TIP3      OH2            29.0438319295       52.4044460573        9.5573950189  TIP3      4573            0.0000000000
     31068      4709  TIP3      H1             29.0182878245       53.2598776304        9.9888262142  TIP3      4573            0.0000000000
     31069      4709  TIP3      H2             28.7129607945       52.5901167944        8.6610961821  TIP3      4573            0.0000000000
     31070      4710  TIP3      OH2            24.2789506617       52.4993176027       19.7862357104  TIP3      4574            0.0000000000
     31071      4710  TIP3      H1             24.0585393043       52.9038281437       18.9145032828  TIP3      4574            0.0000000000
     31072      4710  TIP3      H2             23.4393215186       52.5722948917       20.2747580023  TIP3      4574            0.0000000000
     31073      4711  TIP3      OH2            35.9795112773       37.7983831601        6.5096790073  TIP3      4575            0.0000000000
     31074      4711  TIP3      H1             34.9927190018       37.8379772985        6.4871407272  TIP3      4575            0.0000000000
     31075      4711  TIP3      H2             36.1862110944       38.4801223390        5.8389079911  TIP3      4575            0.0000000000
     31076      4712  TIP3      OH2            23.6701332557       46.3005813541        7.5144082362  TIP3      4576            0.0000000000
     31077      4712  TIP3      H1             23.0714010365       47.0059044220        7.1686316489  TIP3      4576            0.0000000000
     31078      4712  TIP3      H2             23.0866799259       45.5338400784        7.5510344475  TIP3      4576            0.0000000000
     31079      4713  TIP3      OH2            37.0999581457       52.3090014058        4.3939277052  TIP3      4577            0.0000000000
     31080      4713  TIP3      H1             36.9477270610       52.4889650286        3.4471315107  TIP3      4577            0.0000000000
     31081      4713  TIP3      H2             37.9120049755       51.7589824502        4.3330498996  TIP3      4577            0.0000000000
     31082      4714  TIP3      OH2            19.9617085650       49.3350421144       17.0317687295  TIP3      4578            0.0000000000
     31083      4714  TIP3      H1             19.3824166478       49.5737416121       16.2938579474  TIP3      4578            0.0000000000
     31084      4714  TIP3      H2             20.2832056559       48.4890532317       16.6716009801  TIP3      4578            0.0000000000
     31085      4715  TIP3      OH2            19.7574867080       51.6904003244       13.4822744767  TIP3      4579            0.0000000000
     31086      4715  TIP3      H1             20.6350454671       51.3084881251       13.3592738653  TIP3      4579            0.0000000000
     31087      4715  TIP3      H2             19.9335751695       52.2775878439       14.2407132534  TIP3      4579            0.0000000000
     31088      4716  TIP3      OH2            37.4660811118       52.5739378577       19.3136917699  TIP3      4580            0.0000000000
     31089      4716  TIP3      H1             37.4351451047       51.6599990415       19.6271760826  TIP3      4580            0.0000000000
     31090      4716  TIP3      H2             36.6703855882       52.9210439452       19.7857164349  TIP3      4580            0.0000000000
     31091      4717  TIP3      OH2            28.1465573826       52.2140927378       18.3190930635  TIP3      4581            0.0000000000
     31092      4717  TIP3      H1             28.2055719084       53.1058227977       18.7195943021  TIP3      4581            0.0000000000
     31093      4717  TIP3      H2             27.2088385055       51.9446336171       18.4608302434  TIP3      4581            0.0000000000
     31094      4718  TIP3      OH2            28.7321096432       55.6977015489        7.6122718983  TIP3      4582            0.0000000000
     31095      4718  TIP3      H1             28.8285901888       55.9549030838        6.6781874807  TIP3      4582            0.0000000000
     31096      4718  TIP3      H2             28.8611782503       56.5513875211        8.0902618646  TIP3      4582            0.0000000000
     31097      4719  TIP3      OH2            22.8832515756       54.4771943543        9.9867781833  TIP3      4583            0.0000000000
     31098      4719  TIP3      H1             23.2204005135       54.3981992192       10.9120792630  TIP3      4583            0.0000000000
     31099      4719  TIP3      H2             22.2045442201       53.7566591985       10.0019453644  TIP3      4583            0.0000000000
     31100      4720  TIP3      OH2            31.7144123478       54.5098002008        4.3952664395  TIP3      4584            0.0000000000
     31101      4720  TIP3      H1             32.3548503084       53.8645268669        4.0432415415  TIP3      4584            0.0000000000
     31102      4720  TIP3      H2             31.8688691976       54.4866069568        5.3555451916  TIP3      4584            0.0000000000
     31103      4721  TIP3      OH2            31.7772242659       55.1905382450        7.4509834181  TIP3      4585            0.0000000000
     31104      4721  TIP3      H1             30.8262949565       55.3734117908        7.5892902891  TIP3      4585            0.0000000000
     31105      4721  TIP3      H2             31.8847524568       54.4088264587        8.0227544497  TIP3      4585            0.0000000000
     31106      4722  TIP3      OH2            35.1686220757       43.9599637091       19.3188520841  TIP3      4586            0.0000000000
     31107      4722  TIP3      H1             34.4873864341       44.5214543306       18.9004327657  TIP3      4586            0.0000000000
     31108      4722  TIP3      H2             34.8754157340       43.0566916144       19.0831384610  TIP3      4586            0.0000000000
     31109      4723  TIP3      OH2            22.2637284480       50.4655304714       17.9003630703  TIP3      4587            0.0000000000
     31110      4723  TIP3      H1             22.5282090062       50.0301716803       18.7391411941  TIP3      4587            0.0000000000
     31111      4723  TIP3      H2             21.3691647572       50.0774392063       17.7547018290  TIP3      4587            0.0000000000
     31112      4724  TIP3      OH2            24.6690956706       39.0125175670       13.6372345127  TIP3      4588            0.0000000000
     31113      4724  TIP3      H1             23.7474644559       39.0920721805       13.3407053972  TIP3      4588            0.0000000000
     31114      4724  TIP3      H2             24.6435774664       39.5829733521       14.4262501078  TIP3      4588            0.0000000000
     31115      4725  TIP3      OH2            29.2217933399       38.5405685019       16.9007395610  TIP3      4589            0.0000000000
     31116      4725  TIP3      H1             29.6298087884       38.2196709087       17.7359032425  TIP3      4589            0.0000000000
     31117      4725  TIP3      H2             28.2620682589       38.3726925855       17.0263982171  TIP3      4589            0.0000000000
     31118      4726  TIP3      OH2            32.2244666046       42.5741759445       18.0600174246  TIP3      4590            0.0000000000
     31119      4726  TIP3      H1             31.6882031501       42.3413697177       18.8560623548  TIP3      4590            0.0000000000
     31120      4726  TIP3      H2             32.4428385547       43.5098062484       18.2300891215  TIP3      4590            0.0000000000
     31121      4727  TIP3      OH2            33.6228670735       47.6933103416        4.4232748497  TIP3      4591            0.0000000000
     31122      4727  TIP3      H1             33.5204605022       47.8913117190        3.4818359093  TIP3      4591            0.0000000000
     31123      4727  TIP3      H2             34.4484071826       48.1534751532        4.6500611734  TIP3      4591            0.0000000000
     31124      4728  TIP3      OH2            29.2223320346       41.4337498078        4.4215819295  TIP3      4592            0.0000000000
     31125      4728  TIP3      H1             28.9149525701       41.2197412424        5.3309314755  TIP3      4592            0.0000000000
     31126      4728  TIP3      H2             29.5629782262       40.5817294081        4.1439232670  TIP3      4592            0.0000000000
     31127      4729  TIP3      OH2            24.6146435613       43.7589576660       15.1445734409  TIP3      4593            0.0000000000
     31128      4729  TIP3      H1             23.8804661449       43.7939475964       15.7847648381  TIP3      4593            0.0000000000
     31129      4729  TIP3      H2             24.6901436226       44.7124397495       14.9066668042  TIP3      4593            0.0000000000
     31130      4730  TIP3      OH2            24.9498646598       43.7334427794        9.9450851446  TIP3      4594            0.0000000000
     31131      4730  TIP3      H1             23.9875474373       43.8216962814        9.7852895475  TIP3      4594            0.0000000000
     31132      4730  TIP3      H2             25.2704906616       43.4607321809        9.0619165392  TIP3      4594            0.0000000000
     31133      4731  TIP3      OH2            30.8474371743       44.7874165529        9.0480862191  TIP3      4595            0.0000000000
     31134      4731  TIP3      H1             30.3978013065       45.4332844067        8.4459632242  TIP3      4595            0.0000000000
     31135      4731  TIP3      H2             31.3630857566       44.2811061062        8.3916235609  TIP3      4595            0.0000000000
     31136      4732  TIP3      OH2            29.3233891152       45.2695654095       19.6558609050  TIP3      4596            0.0000000000
     31137      4732  TIP3      H1             29.5018356431       44.9580293700       20.5623292986  TIP3      4596            0.0000000000
     31138      4732  TIP3      H2             29.7799957304       46.1163859428       19.7450366843  TIP3      4596            0.0000000000
     31139      4733  TIP3      OH2            31.4145437181       44.0619027253       11.7404344514  TIP3      4597            0.0000000000
     31140      4733  TIP3      H1             31.2123447440       44.7948220181       11.1258962675  TIP3      4597            0.0000000000
     31141      4733  TIP3      H2             31.6214813701       43.3476755953       11.0957394571  TIP3      4597            0.0000000000
     31142      4734  TIP3      OH2            22.1268563226       43.7044543871       16.3820721374  TIP3      4598            0.0000000000
     31143      4734  TIP3      H1             22.2255762465       44.0974897815       17.2637655087  TIP3      4598            0.0000000000
     31144      4734  TIP3      H2             21.8672816183       42.7912341314       16.6037441632  TIP3      4598            0.0000000000
     31145      4735  TIP3      OH2            24.9876511356       41.8182711096        4.1548917608  TIP3      4599            0.0000000000
     31146      4735  TIP3      H1             25.1411764928       41.2149228636        4.9139867259  TIP3      4599            0.0000000000
     31147      4735  TIP3      H2             25.5267259491       42.5952018703        4.3423026568  TIP3      4599            0.0000000000
     31148      4736  TIP3      OH2            19.6541962993       41.0429892746       10.7918233216  TIP3      4600            0.0000000000
     31149      4736  TIP3      H1             20.4813045685       40.5750070384       10.9595436561  TIP3      4600            0.0000000000
     31150      4736  TIP3      H2             19.7427213907       41.3085939758        9.8640290327  TIP3      4600            0.0000000000
     31151      4737  TIP3      OH2            20.7935700345       41.7119241451        6.0603309727  TIP3      4601            0.0000000000
     31152      4737  TIP3      H1             21.1894599414       42.1985096009        5.3104188720  TIP3      4601            0.0000000000
     31153      4737  TIP3      H2             20.1191647389       42.3700153731        6.3280451995  TIP3      4601            0.0000000000
     31154      4738  TIP3      OH2            30.4032898050       45.2369454986       15.5596616713  TIP3      4602            0.0000000000
     31155      4738  TIP3      H1             31.0169929231       44.5175809760       15.2654884315  TIP3      4602            0.0000000000
     31156      4738  TIP3      H2             29.9238066233       44.8276763559       16.3157235306  TIP3      4602            0.0000000000
     31157      4739  TIP3      OH2            27.8611692106       40.9321752424       10.9645586769  TIP3      4603            0.0000000000
     31158      4739  TIP3      H1             26.8979897791       41.1157594964       10.9806582423  TIP3      4603            0.0000000000
     31159      4739  TIP3      H2             28.0580696312       40.6300118722       11.8736212248  TIP3      4603            0.0000000000
     31160      4740  TIP3      OH2            22.3166410423       42.8565734537        9.7193338086  TIP3      4604            0.0000000000
     31161      4740  TIP3      H1             21.5480776705       43.2002392347        9.2228659028  TIP3      4604            0.0000000000
     31162      4740  TIP3      H2             22.4834446005       41.9641162430        9.3518610657  TIP3      4604            0.0000000000
     31163      4741  TIP3      OH2            25.4937283998       43.0693093803        7.3598034520  TIP3      4605            0.0000000000
     31164      4741  TIP3      H1             26.3880976537       43.3984924008        7.5818018232  TIP3      4605            0.0000000000
     31165      4741  TIP3      H2             25.1148376136       43.7846303791        6.8166427323  TIP3      4605            0.0000000000
     31166      4742  TIP3      OH2            32.1171451778       40.7550252013       13.8956913343  TIP3      4606            0.0000000000
     31167      4742  TIP3      H1             31.6330507525       40.2423326188       14.5713936943  TIP3      4606            0.0000000000
     31168      4742  TIP3      H2             32.0403090347       40.2135702195       13.0971017690  TIP3      4606            0.0000000000
     31169      4743  TIP3      OH2            24.2720855943       44.8012079064        4.6496604490  TIP3      4607            0.0000000000
     31170      4743  TIP3      H1             24.0308982392       44.3555241688        3.8112208218  TIP3      4607            0.0000000000
     31171      4743  TIP3      H2             25.2359662957       44.9126215556        4.5115561945  TIP3      4607            0.0000000000
     31172      4744  TIP3      OH2            34.8778290711       56.5273443024       20.5685498128  TIP3      4608            0.0000000000
     31173      4744  TIP3      H1             35.3036877767       56.7483652998       19.7057835480  TIP3      4608            0.0000000000
     31174      4744  TIP3      H2             35.5324856215       56.9341271512       21.1604616470  TIP3      4608            0.0000000000
     31175      4745  TIP3      OH2            22.5678065153       49.5543418320       20.5912336538  TIP3      4609            0.0000000000
     31176      4745  TIP3      H1             23.3859764845       49.4171323466       21.1185697391  TIP3      4609            0.0000000000
     31177      4745  TIP3      H2             22.0987470289       48.7195105841       20.7717688019  TIP3      4609            0.0000000000
     31178      4746  TIP3      OH2            28.4709471665       43.5855941201       12.5435840933  TIP3      4610            0.0000000000
     31179      4746  TIP3      H1             29.4000813697       43.6360630893       12.2409041377  TIP3      4610            0.0000000000
     31180      4746  TIP3      H2             28.2544622382       42.6626491246       12.3579915420  TIP3      4610            0.0000000000
     31181      4747  TIP3      OH2            23.0049684063       40.1106520188        9.5057253102  TIP3      4611            0.0000000000
     31182      4747  TIP3      H1             22.5999384367       39.3033091850        9.8953133851  TIP3      4611            0.0000000000
     31183      4747  TIP3      H2             23.2967975899       39.8002604929        8.6362392370  TIP3      4611            0.0000000000
     31184      4748  TIP3      OH2            26.7697170249       42.2656289477       15.0002123519  TIP3      4612            0.0000000000
     31185      4748  TIP3      H1             25.9252945753       42.7836081428       14.9867975312  TIP3      4612            0.0000000000
     31186      4748  TIP3      H2             27.3684401496       42.9507886709       14.6557932805  TIP3      4612            0.0000000000
     31187      4749  TIP3      OH2            27.8902650799       48.6980310813        7.3722518554  TIP3      4613            0.0000000000
     31188      4749  TIP3      H1             27.1226071915       48.2095185131        6.9944779582  TIP3      4613            0.0000000000
     31189      4749  TIP3      H2             27.4446774341       49.1562303814        8.1283700652  TIP3      4613            0.0000000000
     31190      4750  TIP3      OH2            35.4655514884       48.4554020838       15.4370401870  TIP3      4614            0.0000000000
     31191      4750  TIP3      H1             35.9560925415       48.6919803708       14.6258833002  TIP3      4614            0.0000000000
     31192      4750  TIP3      H2             34.6835360066       47.9819757920       15.0788755291  TIP3      4614            0.0000000000
     31193      4751  TIP3      OH2            31.6733832320       41.9067651265        5.8143973537  TIP3      4615            0.0000000000
     31194      4751  TIP3      H1             31.0733432268       42.1955120254        5.1104054495  TIP3      4615            0.0000000000
     31195      4751  TIP3      H2             32.0670454839       42.7566659951        6.1200811503  TIP3      4615            0.0000000000
     31196      4752  TIP3      OH2            29.2453392287       49.6851995722       18.1768444213  TIP3      4616            0.0000000000
     31197      4752  TIP3      H1             28.8256526192       49.1953568230       18.9041936224  TIP3      4616            0.0000000000
     31198      4752  TIP3      H2             28.8718276859       50.5752168914       18.3268546746  TIP3      4616            0.0000000000
     31199      4753  TIP3      OH2            32.6309365861       43.9397943813        7.1187610671  TIP3      4617            0.0000000000
     31200      4753  TIP3      H1             33.3618201209       43.6011668881        7.6725143464  TIP3      4617            0.0000000000
     31201      4753  TIP3      H2             32.8690781114       44.8653277819        6.9430175349  TIP3      4617            0.0000000000
     31202      4754  TIP3      OH2            22.7744270733       48.2231945312       12.3609990704  TIP3      4618            0.0000000000
     31203      4754  TIP3      H1             23.1930054708       47.9560326420       11.5214209056  TIP3      4618            0.0000000000
     31204      4754  TIP3      H2             23.1017175096       47.5681384494       12.9986680801  TIP3      4618            0.0000000000
     31205      4755  TIP3      OH2            29.7213537077       50.0044206597        5.9989574852  TIP3      4619            0.0000000000
     31206      4755  TIP3      H1             29.4921615973       50.8755187058        6.3784997890  TIP3      4619            0.0000000000
     31207      4755  TIP3      H2             29.0244042462       49.4230480358        6.3815353655  TIP3      4619            0.0000000000
     31208      4756  TIP3      OH2            19.6801935835       46.0977568180       17.4793938892  TIP3      4620            0.0000000000
     31209      4756  TIP3      H1             19.4110226950       45.8265280471       18.3743074488  TIP3      4620            0.0000000000
     31210      4756  TIP3      H2             19.0357365892       45.6009748635       16.9482456191  TIP3      4620            0.0000000000
     31211      4757  TIP3      OH2            26.6621550055       46.5904122332       19.7916616171  TIP3      4621            0.0000000000
     31212      4757  TIP3      H1             26.4339558133       45.8893537113       19.1366443669  TIP3      4621            0.0000000000
     31213      4757  TIP3      H2             27.3025787538       46.1261585751       20.3472302511  TIP3      4621            0.0000000000
     31214      4758  TIP3      OH2            31.8749414424       51.6121624636       18.3232576517  TIP3      4622            0.0000000000
     31215      4758  TIP3      H1             31.0374473462       51.8081591593       17.8784196406  TIP3      4622            0.0000000000
     31216      4758  TIP3      H2             31.6387373002       51.8907131472       19.2412355899  TIP3      4622            0.0000000000
     31217      4759  TIP3      OH2            37.4348475997       43.4880766650        6.3667315898  TIP3      4623            0.0000000000
     31218      4759  TIP3      H1             36.8796951061       43.5145080035        5.5506690417  TIP3      4623            0.0000000000
     31219      4759  TIP3      H2             37.7277198908       44.4137586037        6.3557885877  TIP3      4623            0.0000000000
     31220      4760  TIP3      OH2            37.6491298498       49.4637752478       19.5748218578  TIP3      4624            0.0000000000
     31221      4760  TIP3      H1             36.7199936213       49.5565860473       19.2838612830  TIP3      4624            0.0000000000
     31222      4760  TIP3      H2             38.1249918657       49.4410598290       18.7126148503  TIP3      4624            0.0000000000
     31223      4761  TIP3      OH2            36.6259441869       52.2315830069        6.9798589547  TIP3      4625            0.0000000000
     31224      4761  TIP3      H1             36.6776674301       51.3129320300        7.2704173232  TIP3      4625            0.0000000000
     31225      4761  TIP3      H2             36.8865441308       52.1481586192        6.0307768359  TIP3      4625            0.0000000000
     31226      4762  TIP3      OH2            33.1649517003       47.1487665598       14.2942375566  TIP3      4626            0.0000000000
     31227      4762  TIP3      H1             32.2737340857       47.0437150556       13.9355234161  TIP3      4626            0.0000000000
     31228      4762  TIP3      H2             33.7091949794       46.9733944461       13.4965333175  TIP3      4626            0.0000000000
     31229      4763  TIP3      OH2            24.7955583523       51.6664362160       10.2495123901  TIP3      4627            0.0000000000
     31230      4763  TIP3      H1             25.1973945313       52.5422217761       10.0784954060  TIP3      4627            0.0000000000
     31231      4763  TIP3      H2             24.0362016172       51.6675996796        9.6476322687  TIP3      4627            0.0000000000
     31232      4764  TIP3      OH2            21.2273679427       47.0608359272        4.0167233492  TIP3      4628            0.0000000000
     31233      4764  TIP3      H1             21.6190732575       47.3048852217        4.8820647764  TIP3      4628            0.0000000000
     31234      4764  TIP3      H2             20.2960147231       46.9005021232        4.2903039379  TIP3      4628            0.0000000000
     31235      4765  TIP3      OH2            26.2844161005       49.5645859080        9.4397353323  TIP3      4629            0.0000000000
     31236      4765  TIP3      H1             25.8190328960       50.4018691325        9.6581531218  TIP3      4629            0.0000000000
     31237      4765  TIP3      H2             25.7264779625       48.9089339032        9.8900892603  TIP3      4629            0.0000000000
     31238      4766  TIP3      OH2            27.1727394120       53.7748588327       16.2701968504  TIP3      4630            0.0000000000
     31239      4766  TIP3      H1             27.8952313867       54.3942441566       16.0565843269  TIP3      4630            0.0000000000
     31240      4766  TIP3      H2             27.6071046650       53.1954545595       16.9299131166  TIP3      4630            0.0000000000
     31241      4767  TIP3      OH2            25.4470536122       54.1084066021        9.1303851000  TIP3      4631            0.0000000000
     31242      4767  TIP3      H1             24.5269028171       54.2806895752        9.4116955391  TIP3      4631            0.0000000000
     31243      4767  TIP3      H2             25.8583969058       54.9589553488        9.3960826026  TIP3      4631            0.0000000000
     31244      4768  TIP3      OH2            30.3137350892       49.4183442840       15.6412434602  TIP3      4632            0.0000000000
     31245      4768  TIP3      H1             30.0613758437       49.4315187773       16.5963768716  TIP3      4632            0.0000000000
     31246      4768  TIP3      H2             30.9990525460       48.7296883748       15.6500265001  TIP3      4632            0.0000000000
     31247      4769  TIP3      OH2            32.8813935856       50.9283263724        4.8984768849  TIP3      4633            0.0000000000
     31248      4769  TIP3      H1             33.0839921353       50.6415811377        5.8180246932  TIP3      4633            0.0000000000
     31249      4769  TIP3      H2             32.1796759935       50.2895146864        4.7041271599  TIP3      4633            0.0000000000
     31250      4770  TIP3      OH2            33.7946084260       53.7075732964       17.8063060707  TIP3      4634            0.0000000000
     31251      4770  TIP3      H1             33.0267898243       53.1057365787       17.7973314871  TIP3      4634            0.0000000000
     31252      4770  TIP3      H2             33.4766387525       54.4654046795       17.2737366803  TIP3      4634            0.0000000000
     31253      4771  TIP3      OH2            37.5255797692       55.2263374692        5.3615998509  TIP3      4635            0.0000000000
     31254      4771  TIP3      H1             38.1275140791       55.4078989407        4.6207779790  TIP3      4635            0.0000000000
     31255      4771  TIP3      H2             37.1437568376       56.1200722366        5.5129549390  TIP3      4635            0.0000000000
     31256      4772  TIP3      OH2            21.4385406449       41.0166120986       17.4520004210  TIP3      4636            0.0000000000
     31257      4772  TIP3      H1             20.5654520885       41.3752199876       17.7080802731  TIP3      4636            0.0000000000
     31258      4772  TIP3      H2             21.4189465039       40.1891743743       17.9641195966  TIP3      4636            0.0000000000
     31259      4773  TIP3      OH2            33.8568787948       49.5886233089        7.0748097954  TIP3      4637            0.0000000000
     31260      4773  TIP3      H1             33.6266362037       48.8000198451        7.6133199254  TIP3      4637            0.0000000000
     31261      4773  TIP3      H2             34.8073891656       49.3964355355        6.9659359651  TIP3      4637            0.0000000000
     31262      4774  TIP3      OH2            21.2627061790       52.8704686246       15.7643790376  TIP3      4638            0.0000000000
     31263      4774  TIP3      H1             21.8564980391       52.1315274636       15.9787099143  TIP3      4638            0.0000000000
     31264      4774  TIP3      H2             21.5290722018       53.5020750708       16.4523628646  TIP3      4638            0.0000000000
     31265      4775  TIP3      OH2            25.7663905706       51.1767837749        5.8848079127  TIP3      4639            0.0000000000
     31266      4775  TIP3      H1             26.4124142093       50.6215569302        6.3515090022  TIP3      4639            0.0000000000
     31267      4775  TIP3      H2             26.0140926029       52.0985382304        6.1398385100  TIP3      4639            0.0000000000
     31268      4776  TIP3      OH2            22.2032283281       48.2258118371        6.3849778491  TIP3      4640            0.0000000000
     31269      4776  TIP3      H1             21.4606042883       48.6264813821        6.8947776211  TIP3      4640            0.0000000000
     31270      4776  TIP3      H2             22.6875724512       49.0261952147        6.1051672490  TIP3      4640            0.0000000000
     31271      4777  TIP3      OH2            31.3145253053       40.4487291339       16.5292925278  TIP3      4641            0.0000000000
     31272      4777  TIP3      H1             31.7613996616       41.0465518571       17.1665489073  TIP3      4641            0.0000000000
     31273      4777  TIP3      H2             31.0794388636       39.6652407796       17.0563758188  TIP3      4641            0.0000000000
     31274      4778  TIP3      OH2            30.9853751633       40.7562988501        8.0315178349  TIP3      4642            0.0000000000
     31275      4778  TIP3      H1             31.3299023604       41.1017215456        7.1695316829  TIP3      4642            0.0000000000
     31276      4778  TIP3      H2             31.3585950477       41.3771527192        8.6788623859  TIP3      4642            0.0000000000
     31277      4779  TIP3      OH2            28.8090685118       52.4734837331        6.7289795882  TIP3      4643            0.0000000000
     31278      4779  TIP3      H1             28.1968590189       53.2300709473        6.7871617505  TIP3      4643            0.0000000000
     31279      4779  TIP3      H2             29.3696346037       52.7476981676        5.9879577297  TIP3      4643            0.0000000000
     31280      4780  TIP3      OH2            28.2614056944       42.7872177676        8.9031211537  TIP3      4644            0.0000000000
     31281      4780  TIP3      H1             28.9964543479       43.4224623058        8.9344867996  TIP3      4644            0.0000000000
     31282      4780  TIP3      H2             28.4273125310       42.2170296430        9.6790829701  TIP3      4644            0.0000000000
     31283      4781  TIP3      OH2            29.4034547845       43.7254177694       17.5028666378  TIP3      4645            0.0000000000
     31284      4781  TIP3      H1             29.0429749789       44.4209266812       18.1120128459  TIP3      4645            0.0000000000
     31285      4781  TIP3      H2             30.1132389397       43.3820090961       18.0716294928  TIP3      4645            0.0000000000
     31286      4782  TIP3      OH2            28.9303955332       39.3221514714        9.0258431007  TIP3      4646            0.0000000000
     31287      4782  TIP3      H1             28.5166224767       39.8863931615        9.7156991075  TIP3      4646            0.0000000000
     31288      4782  TIP3      H2             29.7380685795       39.8598331449        8.8130320766  TIP3      4646            0.0000000000
     31289      4783  TIP3      OH2            26.1458617478       53.8269079697        6.4234327193  TIP3      4647            0.0000000000
     31290      4783  TIP3      H1             26.3682371084       54.7083064544        6.0847948977  TIP3      4647            0.0000000000
     31291      4783  TIP3      H2             25.7197324908       54.0355316781        7.2865693574  TIP3      4647            0.0000000000
     31292      4784  TIP3      OH2            24.7760634843       40.4819262337        6.4694407378  TIP3      4648            0.0000000000
     31293      4784  TIP3      H1             24.9341010037       41.3896772595        6.8062886366  TIP3      4648            0.0000000000
     31294      4784  TIP3      H2             25.5448420592       39.9865234749        6.8032879825  TIP3      4648            0.0000000000
     31295      4785  TIP3      OH2            34.8479873444       41.4143780693       18.4844375770  TIP3      4649            0.0000000000
     31296      4785  TIP3      H1             33.9219317076       41.4970308706       18.2018725780  TIP3      4649            0.0000000000
     31297      4785  TIP3      H2             35.3126568201       41.5217394196       17.6329463725  TIP3      4649            0.0000000000
     31298      4786  TIP3      OH2            34.1027042930       45.5585703267       12.2008462746  TIP3      4650            0.0000000000
     31299      4786  TIP3      H1             33.2932969681       45.0802317619       12.4364608425  TIP3      4650            0.0000000000
     31300      4786  TIP3      H2             34.7651965325       45.0728811631       12.7491528507  TIP3      4650            0.0000000000
     31301      4787  TIP3      OH2            23.1863650593       51.0058370771        4.5075165296  TIP3      4651            0.0000000000
     31302      4787  TIP3      H1             23.9284087124       51.2457640487        5.1000511742  TIP3      4651            0.0000000000
     31303      4787  TIP3      H2             23.6152768919       50.3398268913        3.9347076329  TIP3      4651            0.0000000000
     31304      4788  TIP3      OH2            21.0079320297       43.9420314630        4.2934690513  TIP3      4652            0.0000000000
     31305      4788  TIP3      H1             21.6958799975       44.6276121158        4.3229519896  TIP3      4652            0.0000000000
     31306      4788  TIP3      H2             20.2624909597       44.4019159291        3.8799519788  TIP3      4652            0.0000000000
     31307      4789  TIP3      OH2            34.2906858077       54.6601699302       14.1215117688  TIP3      4653            0.0000000000
     31308      4789  TIP3      H1             34.2915149443       55.3527776696       13.4264421945  TIP3      4653            0.0000000000
     31309      4789  TIP3      H2             35.2574860329       54.5440207115       14.1959275293  TIP3      4653            0.0000000000
     31310      4790  TIP3      OH2            21.8215814383       38.4783487071       13.2622820330  TIP3      4654            0.0000000000
     31311      4790  TIP3      H1             21.7743945748       38.2852023180       12.2992374965  TIP3      4654            0.0000000000
     31312      4790  TIP3      H2             21.7905138340       37.5382051587       13.5609578913  TIP3      4654            0.0000000000
     31313      4791  TIP3      OH2            21.1608728801       52.5579235251        9.5124159512  TIP3      4655            0.0000000000
     31314      4791  TIP3      H1             20.2891747740       52.3025768473        9.8393106801  TIP3      4655            0.0000000000
     31315      4791  TIP3      H2             20.9586441664       52.6938254835        8.5679935100  TIP3      4655            0.0000000000
     31316      4792  TIP3      OH2            20.1975428494       55.0438170053       20.0904339807  TIP3      4656            0.0000000000
     31317      4792  TIP3      H1             20.5210299419       54.9348869161       20.9980769835  TIP3      4656            0.0000000000
     31318      4792  TIP3      H2             19.6892263738       54.2183357068       19.9463438180  TIP3      4656            0.0000000000
     31319      4793  TIP3      OH2            24.6470235990       54.4881652469       21.6604052292  TIP3      4657            0.0000000000
     31320      4793  TIP3      H1             24.9872683506       53.8434830981       22.2925413280  TIP3      4657            0.0000000000
     31321      4793  TIP3      H2             24.8547785385       54.0270531734       20.8221563671  TIP3      4657            0.0000000000
     31322      4794  TIP3      OH2            31.1758744142       52.6253820254       20.6386439609  TIP3      4658            0.0000000000
     31323      4794  TIP3      H1             30.9370967928       51.7607627511       21.0702098742  TIP3      4658            0.0000000000
     31324      4794  TIP3      H2             31.9541913095       52.8449657283       21.1973641496  TIP3      4658            0.0000000000
     31325      4795  TIP3      OH2            33.9731058884       52.9720028535        3.4004310520  TIP3      4659            0.0000000000
     31326      4795  TIP3      H1             33.6303300662       52.1246871069        3.7864907804  TIP3      4659            0.0000000000
     31327      4795  TIP3      H2             34.6759386140       52.6177046624        2.7974132380  TIP3      4659            0.0000000000
     31328      4796  TIP3      OH2            24.6600933488       49.1404989910        3.1853779910  TIP3      4660            0.0000000000
     31329      4796  TIP3      H1             25.1759691607       49.1196196583        4.0066398915  TIP3      4660            0.0000000000
     31330      4796  TIP3      H2             25.2040296061       48.5744283528        2.5915759608  TIP3      4660            0.0000000000
     31331      4797  TIP3      OH2            27.1188679889       49.2190779828       20.3920263069  TIP3      4661            0.0000000000
     31332      4797  TIP3      H1             26.6513707946       49.6899552580       19.6671034548  TIP3      4661            0.0000000000
     31333      4797  TIP3      H2             26.9099392799       48.2674886173       20.2001546014  TIP3      4661            0.0000000000
     31334      4798  TIP3      OH2            32.6108537685       48.7263347883       18.0275436008  TIP3      4662            0.0000000000
     31335      4798  TIP3      H1             33.5171515943       49.0785475307       17.9634873601  TIP3      4662            0.0000000000
     31336      4798  TIP3      H2             32.1403281167       49.5749060104       18.1527028275  TIP3      4662            0.0000000000
     31337      4799  TIP3      OH2            21.8892349819       46.2872225075       20.2837187139  TIP3      4663            0.0000000000
     31338      4799  TIP3      H1             21.2891575848       45.5325144814       20.2229557057  TIP3      4663            0.0000000000
     31339      4799  TIP3      H2             21.7835559180       46.5162477103       21.2247984260  TIP3      4663            0.0000000000
     31340      4800  TIP3      OH2            25.6895240686       47.4155688153        6.0866853112  TIP3      4664            0.0000000000
     31341      4800  TIP3      H1             24.9549928704       46.9490033932        6.5337702488  TIP3      4664            0.0000000000
     31342      4800  TIP3      H2             25.8757932599       46.7969429780        5.3614462875  TIP3      4664            0.0000000000
     31343      4801  TIP3      OH2            25.5618202912       44.9571230658       17.8978968340  TIP3      4665            0.0000000000
     31344      4801  TIP3      H1             24.6447491730       45.2953143153       17.8645821681  TIP3      4665            0.0000000000
     31345      4801  TIP3      H2             26.0186190976       45.4129758936       17.1586042802  TIP3      4665            0.0000000000
     31346      4802  TIP3      OH2            26.8957517543       45.5645695993        4.0884677125  TIP3      4666            0.0000000000
     31347      4802  TIP3      H1             27.0722041075       46.0797910393        3.2825592167  TIP3      4666            0.0000000000
     31348      4802  TIP3      H2             27.7968947811       45.6160173665        4.4796290961  TIP3      4666            0.0000000000
     31349      4803  TIP3      OH2            30.6847333718       47.5095973601       21.1051031210  TIP3      4667            0.0000000000
     31350      4803  TIP3      H1             31.5270670476       47.7604976327       21.5200197721  TIP3      4667            0.0000000000
     31351      4803  TIP3      H2             30.3315327934       46.8514586258       21.7438902013  TIP3      4667            0.0000000000
     31352      4804  TIP3      OH2            36.6471254251       48.2113971230        2.7534297453  TIP3      4668            0.0000000000
     31353      4804  TIP3      H1             36.0651687318       48.2617787314        1.9793257668  TIP3      4668            0.0000000000
     31354      4804  TIP3      H2             37.0155258500       49.1072178105        2.8317013904  TIP3      4668            0.0000000000
     31355      4805  TIP3      OH2            26.0950549307       42.4989933202       18.7475222874  TIP3      4669            0.0000000000
     31356      4805  TIP3      H1             25.9375240664       41.7961153331       18.0846708523  TIP3      4669            0.0000000000
     31357      4805  TIP3      H2             25.9466533125       43.3414168319       18.2472001889  TIP3      4669            0.0000000000
     31358      4806  TIP3      OH2            25.9238541950       40.6242053543       16.9097095136  TIP3      4670            0.0000000000
     31359      4806  TIP3      H1             26.1464917457       41.1775839289       16.1256146846  TIP3      4670            0.0000000000
     31360      4806  TIP3      H2             24.9754818969       40.4670421077       16.7014942863  TIP3      4670            0.0000000000
     31361      4807  TIP3      OH2            27.5253259870       46.0786938065       16.2264556519  TIP3      4671            0.0000000000
     31362      4807  TIP3      H1             28.3799256166       46.4922718348       16.0568581811  TIP3      4671            0.0000000000
     31363      4807  TIP3      H2             26.9280157069       46.8561360984       16.1344892178  TIP3      4671            0.0000000000
     31364      4808  TIP3      OH2            31.9490580584       43.9221627645       21.5607117254  TIP3      4672            0.0000000000
     31365      4808  TIP3      H1             32.0651981969       43.0316284627       21.9321996448  TIP3      4672            0.0000000000
     31366      4808  TIP3      H2             32.7988708357       44.3223908522       21.7866067684  TIP3      4672            0.0000000000
     31367      4809  TIP3      OH2            33.5898617792       47.0114688937       20.2789170487  TIP3      4673            0.0000000000
     31368      4809  TIP3      H1             33.0763696780       47.5374505159       19.6412822537  TIP3      4673            0.0000000000
     31369      4809  TIP3      H2             34.4802382357       47.0351679968       19.8737664775  TIP3      4673            0.0000000000
     31370      4810  TIP3      OH2            24.3376767645       42.1501339025       20.8781625884  TIP3      4674            0.0000000000
     31371      4810  TIP3      H1             23.4504995347       42.3433299675       20.5291340617  TIP3      4674            0.0000000000
     31372      4810  TIP3      H2             24.9302636514       42.3511286900       20.1216308256  TIP3      4674            0.0000000000
     31373      4811  TIP3      OH2            26.6067371162       38.1007675966       16.5677136119  TIP3      4675            0.0000000000
     31374      4811  TIP3      H1             26.2293257347       38.9872671014       16.7720187487  TIP3      4675            0.0000000000
     31375      4811  TIP3      H2             25.8227605551       37.5577053535       16.3638566812  TIP3      4675            0.0000000000
     31376      4812  TIP3      OH2            27.8468909728       42.0624551373       20.8996913241  TIP3      4676            0.0000000000
     31377      4812  TIP3      H1             27.2315485641       42.0404269728       21.6624836416  TIP3      4676            0.0000000000
     31378      4812  TIP3      H2             27.2367173815       42.2749687297       20.1643136611  TIP3      4676            0.0000000000
     31379      4813  TIP3      OH2            30.2470828649       41.6895321706       19.7103865851  TIP3      4677            0.0000000000
     31380      4813  TIP3      H1             29.3758553478       41.9486173955       20.0933073352  TIP3      4677            0.0000000000
     31381      4813  TIP3      H2             30.6039903268       41.1168125340       20.4246715668  TIP3      4677            0.0000000000
     31382      4814  TIP3      OH2            31.7917172111       40.2236131774       21.5340415312  TIP3      4678            0.0000000000
     31383      4814  TIP3      H1             31.8893575913       39.2509034962       21.6531284780  TIP3      4678            0.0000000000
     31384      4814  TIP3      H2             32.5766995591       40.5692237105       22.0434922242  TIP3      4678            0.0000000000
     31385      4815  TIP3      OH2            21.5092842023       41.4706614223       20.8315767245  TIP3      4679            0.0000000000
     31386      4815  TIP3      H1             21.7726602289       40.5729156172       20.5479022865  TIP3      4679            0.0000000000
     31387      4815  TIP3      H2             21.6442288269       41.4567681842       21.8145039860  TIP3      4679            0.0000000000
     31388      4816  TIP3      OH2            26.6663481134       38.1407743791       19.3551882701  TIP3      4680            0.0000000000
     31389      4816  TIP3      H1             27.3293882996       37.5278104937       19.7070586975  TIP3      4680            0.0000000000
     31390      4816  TIP3      H2             26.6952398128       37.9254126659       18.4041030073  TIP3      4680            0.0000000000
     31391      4817  TIP3      OH2            26.5984853813       38.9039809163       22.4360713121  TIP3      4681            0.0000000000
     31392      4817  TIP3      H1             26.8923266463       38.8737234391       21.5099523512  TIP3      4681            0.0000000000
     31393      4817  TIP3      H2             26.4269355264       39.8619142536       22.5395246541  TIP3      4681            0.0000000000
     31394      4818  TIP3      OH2            26.5057486597       56.4026220844        4.4099508704  TIP3      4682            0.0000000000
     31395      4818  TIP3      H1             27.4608147805       56.2376290474        4.5869215098  TIP3      4682            0.0000000000
     31396      4818  TIP3      H2             26.4835030812       56.3081036358        3.4383418399  TIP3      4682            0.0000000000
     31397      4819  TIP3      OH2            20.1891698481       50.3367144939        4.3997756036  TIP3      4683            0.0000000000
     31398      4819  TIP3      H1             21.1504566291       50.3250716728        4.2317688429  TIP3      4683            0.0000000000
     31399      4819  TIP3      H2             19.8233790203       50.2332137287        3.4987462648  TIP3      4683            0.0000000000
     31400      4820  TIP3      OH2            19.1633747401       56.0956512044        9.4568552059  TIP3      4684            0.0000000000
     31401      4820  TIP3      H1             18.4389774426       55.5070196537        9.1301539067  TIP3      4684            0.0000000000
     31402      4820  TIP3      H2             19.4429531407       55.5535086497       10.2286588180  TIP3      4684            0.0000000000
     31403      4821  TIP3      OH2            19.9620541236       54.4740541071       11.5340559509  TIP3      4685            0.0000000000
     31404      4821  TIP3      H1             19.3458946295       53.9625096300       12.0910035240  TIP3      4685            0.0000000000
     31405      4821  TIP3      H2             20.6756712111       54.6489297655       12.1761752070  TIP3      4685            0.0000000000
     31406      4822  TIP3      OH2            36.8965307611       54.7897619687       13.8948188502  TIP3      4686            0.0000000000
     31407      4822  TIP3      H1             37.7110967258       54.8640630473       14.4185091198  TIP3      4686            0.0000000000
     31408      4822  TIP3      H2             36.7338490488       55.7231138602       13.6658685500  TIP3      4686            0.0000000000
     31409      4823  TIP3      OH2            37.0752144156       54.3461217902       17.1007590991  TIP3      4687            0.0000000000
     31410      4823  TIP3      H1             36.5601934456       53.7227380933       16.5578647353  TIP3      4687            0.0000000000
     31411      4823  TIP3      H2             37.1826186855       53.8437760915       17.9342442685  TIP3      4687            0.0000000000
     31412      4824  TIP3      OH2            35.8002099781       50.4504600916       22.1630224030  TIP3      4688            0.0000000000
     31413      4824  TIP3      H1             34.8422002544       50.4485602951       22.2997493383  TIP3      4688            0.0000000000
     31414      4824  TIP3      H2             36.0341789121       51.3448865512       22.4928745214  TIP3      4688            0.0000000000
     31415      4825  TIP3      OH2            36.4788047155       48.8272128255        6.9423795063  TIP3      4689            0.0000000000
     31416      4825  TIP3      H1             37.3741699877       49.0888488623        7.2529332527  TIP3      4689            0.0000000000
     31417      4825  TIP3      H2             36.3109063212       48.0613119575        7.5249116861  TIP3      4689            0.0000000000
     31418      4826  TIP3      OH2            37.3197164319       46.5393941438        8.9936141765  TIP3      4690            0.0000000000
     31419      4826  TIP3      H1             36.4581393500       46.1109966689        9.2322511900  TIP3      4690            0.0000000000
     31420      4826  TIP3      H2             37.6919105405       46.6801961302        9.8849950168  TIP3      4690            0.0000000000
     31421      4827  TIP3      OH2            37.2515769203       49.4678256272       13.6128919434  TIP3      4691            0.0000000000
     31422      4827  TIP3      H1             37.7650650191       48.6247438896       13.6344682107  TIP3      4691            0.0000000000
     31423      4827  TIP3      H2             37.9638143802       50.1087518523       13.4275017418  TIP3      4691            0.0000000000
     31424      4828  TIP3      OH2            35.5358135916       52.2264468797       16.4372712054  TIP3      4692            0.0000000000
     31425      4828  TIP3      H1             35.2591253608       52.7063689752       17.2484371303  TIP3      4692            0.0000000000
     31426      4828  TIP3      H2             34.6482656021       52.0987757479       16.0723616081  TIP3      4692            0.0000000000
     31427      4829  TIP3      OH2            37.8155074632       46.5121225367        5.5362245299  TIP3      4693            0.0000000000
     31428      4829  TIP3      H1             37.1009983272       46.9112380358        5.0090850995  TIP3      4693            0.0000000000
     31429      4829  TIP3      H2             38.0156538869       47.2389525738        6.1478372969  TIP3      4693            0.0000000000
     31430      4830  TIP3      OH2            36.4876339384       43.7428524132        3.7557340997  TIP3      4694            0.0000000000
     31431      4830  TIP3      H1             36.9485092080       44.1689427469        2.9950583501  TIP3      4694            0.0000000000
     31432      4830  TIP3      H2             35.7322908667       43.3965870359        3.2607132031  TIP3      4694            0.0000000000
     31433      4831  TIP3      OH2            35.0146709531       45.4616366868        9.7464554215  TIP3      4695            0.0000000000
     31434      4831  TIP3      H1             34.3432513720       44.7943597203        9.5320386106  TIP3      4695            0.0000000000
     31435      4831  TIP3      H2             34.9295796221       45.4650147917       10.7331044166  TIP3      4695            0.0000000000
     31436      4832  TIP3      OH2            19.9313637113       47.3679015877       14.1272254324  TIP3      4696            0.0000000000
     31437      4832  TIP3      H1             19.9653858211       47.1192363975       13.1743010555  TIP3      4696            0.0000000000
     31438      4832  TIP3      H2             20.8731552121       47.2818723040       14.3982833365  TIP3      4696            0.0000000000
     31439      4833  TIP3      OH2            36.2563669520       47.0327211016       19.4347306221  TIP3      4697            0.0000000000
     31440      4833  TIP3      H1             36.6350955377       46.1560548795       19.6595897706  TIP3      4697            0.0000000000
     31441      4833  TIP3      H2             37.0353586433       47.5318702860       19.1450745341  TIP3      4697            0.0000000000
     31442      4834  TIP3      OH2            37.6032755415       44.6711672355       19.6975594467  TIP3      4698            0.0000000000
     31443      4834  TIP3      H1             36.6863278072       44.3030581324       19.6575739905  TIP3      4698            0.0000000000
     31444      4834  TIP3      H2             38.1383346199       43.8536662655       19.7783010359  TIP3      4698            0.0000000000
     31445      4835  TIP3      OH2            34.2616266087       42.8201919357        8.9086171499  TIP3      4699            0.0000000000
     31446      4835  TIP3      H1             34.3361534901       41.8466931871        8.7378540931  TIP3      4699            0.0000000000
     31447      4835  TIP3      H2             35.1544535300       43.0592368066        8.6152453247  TIP3      4699            0.0000000000
     31448      4836  TIP3      OH2            35.8166138031       43.8583783662       13.4567605123  TIP3      4700            0.0000000000
     31449      4836  TIP3      H1             36.7598620234       43.9132589018       13.7464744134  TIP3      4700            0.0000000000
     31450      4836  TIP3      H2             35.4099569227       43.7065076654       14.3338799120  TIP3      4700            0.0000000000
     31451      4837  TIP3      OH2            35.5205821551       44.3182029459       16.1603198783  TIP3      4701            0.0000000000
     31452      4837  TIP3      H1             34.8019283541       44.5039864982       16.7938428361  TIP3      4701            0.0000000000
     31453      4837  TIP3      H2             36.0374268700       45.1466346606       16.2019365651  TIP3      4701            0.0000000000
     31454      4838  TIP3      OH2            19.0797895080       42.2917640013       20.2888429061  TIP3      4702            0.0000000000
     31455      4838  TIP3      H1             20.0075436844       42.0390329451       20.5176368624  TIP3      4702            0.0000000000
     31456      4838  TIP3      H2             18.6115584405       41.4393410479       20.3181572328  TIP3      4702            0.0000000000
     31457      4839  TIP3      OH2            37.0624063181       38.4720366288       21.4826973002  TIP3      4703            0.0000000000
     31458      4839  TIP3      H1             37.7502449968       38.1182598688       20.9000285025  TIP3      4703            0.0000000000
     31459      4839  TIP3      H2             36.9824008713       39.4084952035       21.2237744477  TIP3      4703            0.0000000000
     31460      4840  TIP3      OH2            34.8479634645       40.1972651763        8.5801559802  TIP3      4704            0.0000000000
     31461      4840  TIP3      H1             35.1185752775       40.0892415951        9.5113541066  TIP3      4704            0.0000000000
     31462      4840  TIP3      H2             35.0020290147       39.3203296486        8.2056816307  TIP3      4704            0.0000000000
     31463      4841  TIP3      OH2            21.0320538701       40.9263778210       13.8605261494  TIP3      4705            0.0000000000
     31464      4841  TIP3      H1             21.2755640827       39.9789964342       13.7277768941  TIP3      4705            0.0000000000
     31465      4841  TIP3      H2             21.8093328841       41.4205363601       13.5193626984  TIP3      4705            0.0000000000
     31466      4842  TIP3      OH2            19.1725865642       43.8092172859       14.0145429316  TIP3      4706            0.0000000000
     31467      4842  TIP3      H1             19.7379992226       43.5561065348       13.2658602565  TIP3      4706            0.0000000000
     31468      4842  TIP3      H2             19.7540733515       44.4445987284       14.4519574325  TIP3      4706            0.0000000000
     31469      4843  TIP3      OH2            36.8554637063       40.8229111822       20.0362197271  TIP3      4707            0.0000000000
     31470      4843  TIP3      H1             35.9738813785       41.1807328466       19.7713891099  TIP3      4707            0.0000000000
     31471      4843  TIP3      H2             36.8891982323       40.1047340010       19.3863633537  TIP3      4707            0.0000000000
     31472      4844  TIP3      OH2            36.7266987985       40.2157544300        4.6979194661  TIP3      4708            0.0000000000
     31473      4844  TIP3      H1             36.4071282132       40.1834823876        3.7821313231  TIP3      4708            0.0000000000
     31474      4844  TIP3      H2             37.2670222685       41.0128797624        4.6652545337  TIP3      4708            0.0000000000
     31475      4845  TIP3      OH2            18.8926185077       40.3943147737        7.8209037143  TIP3      4709            0.0000000000
     31476      4845  TIP3      H1             18.1962837651       40.3182630638        7.1533014880  TIP3      4709            0.0000000000
     31477      4845  TIP3      H2             19.6309262294       40.5904729942        7.2208055513  TIP3      4709            0.0000000000
     31478      4846  TIP3      OH2            34.4425493696       54.9620830951       10.4944602748  TIP3      4710            0.0000000000
     31479      4846  TIP3      H1             34.8817113547       55.0585151380        9.6280311862  TIP3      4710            0.0000000000
     31480      4846  TIP3      H2             34.7934537653       55.7161172398       11.0116471675  TIP3      4710            0.0000000000
     31481      4847  TIP3      OH2            19.4184813315       38.3552770285       16.1490727272  TIP3      4711            0.0000000000
     31482      4847  TIP3      H1             18.7734544931       38.3505981156       16.8728050544  TIP3      4711            0.0000000000
     31483      4847  TIP3      H2             19.2091848231       39.1546389897       15.6261424312  TIP3      4711            0.0000000000
     31484      4848  TIP3      OH2            22.0600906361       52.3268680896       21.2526069442  TIP3      4712            0.0000000000
     31485      4848  TIP3      H1             21.3986056259       52.4505513610       20.5529558377  TIP3      4712            0.0000000000
     31486      4848  TIP3      H2             22.2655108895       51.3744165011       21.1632479521  TIP3      4712            0.0000000000
     31487      4849  TIP3      OH2            24.4618008223       53.6262675393       17.2926399165  TIP3      4713            0.0000000000
     31488      4849  TIP3      H1             24.5496041572       54.4631010281       16.7745614920  TIP3      4713            0.0000000000
     31489      4849  TIP3      H2             25.2326731682       53.1535036798       16.9445295871  TIP3      4713            0.0000000000
     31490      4850  TIP3      OH2            28.7031640426       54.5991741476       19.6730868702  TIP3      4714            0.0000000000
     31491      4850  TIP3      H1             28.9651168832       54.0795147081       20.4508006033  TIP3      4714            0.0000000000
     31492      4850  TIP3      H2             29.5844062855       54.9632247626       19.4159367581  TIP3      4714            0.0000000000
     31493      4851  TIP3      OH2            30.8974243546       55.9613357109       19.0372591291  TIP3      4715            0.0000000000
     31494      4851  TIP3      H1             31.5914406291       55.6323151613       18.4522708653  TIP3      4715            0.0000000000
     31495      4851  TIP3      H2             31.4003421477       56.3073189230       19.8004921166  TIP3      4715            0.0000000000
     31496      4852  TIP3      OH2            36.3737287188       38.2331949547       18.2120028386  TIP3      4716            0.0000000000
     31497      4852  TIP3      H1             35.6132219927       38.5895640282       17.7312654607  TIP3      4716            0.0000000000
     31498      4852  TIP3      H2             36.3891275273       37.2988658204       17.9191852060  TIP3      4716            0.0000000000
     31499      4853  TIP3      OH2            21.7710809996       56.3455786274       16.7329912297  TIP3      4717            0.0000000000
     31500      4853  TIP3      H1             21.1086455344       56.9970473654       16.4221391513  TIP3      4717            0.0000000000
     31501      4853  TIP3      H2             21.7576203984       56.4957326556       17.6959521712  TIP3      4717            0.0000000000
     31502      4854  TIP3      OH2            24.3044732645       55.8659365536       15.7935554996  TIP3      4718            0.0000000000
     31503      4854  TIP3      H1             23.3356998694       55.9847112204       15.9725259001  TIP3      4718            0.0000000000
     31504      4854  TIP3      H2             24.4191819897       56.5643656466       15.1144533879  TIP3      4718            0.0000000000
     31505      4855  TIP3      OH2            29.0534465985       55.5552202536       14.8758802553  TIP3      4719            0.0000000000
     31506      4855  TIP3      H1             28.3011912831       56.0854154089       14.5590805499  TIP3      4719            0.0000000000
     31507      4855  TIP3      H2             29.3129498787       56.1051627942       15.6591604490  TIP3      4719            0.0000000000
     31508      4856  TIP3      OH2            31.3528703700       54.2347310445       16.2075446759  TIP3      4720            0.0000000000
     31509      4856  TIP3      H1             30.6985379141       54.5197070464       15.5442843762  TIP3      4720            0.0000000000
     31510      4856  TIP3      H2             31.9322290139       55.0231311826       16.2273391057  TIP3      4720            0.0000000000
     31511      4857  TIP3      OH2            33.4150019246       56.1012024318       16.2908172824  TIP3      4721            0.0000000000
     31512      4857  TIP3      H1             33.4726448543       57.0667798089       16.1525854539  TIP3      4721            0.0000000000
     31513      4857  TIP3      H2             33.7562193107       55.7997538995       15.4203656810  TIP3      4721            0.0000000000
     31514      4858  TIP3      OH2            21.4637736815       54.7372892297       13.7741219094  TIP3      4722            0.0000000000
     31515      4858  TIP3      H1             21.2989744768       53.9977072164       14.4080080897  TIP3      4722            0.0000000000
     31516      4858  TIP3      H2             22.4221331490       54.5806223286       13.6039835541  TIP3      4722            0.0000000000
     31517      4859  TIP3      OH2            23.7860825767       54.0136593165       12.4522977133  TIP3      4723            0.0000000000
     31518      4859  TIP3      H1             23.5588907852       53.0754087130       12.5706660903  TIP3      4723            0.0000000000
     31519      4859  TIP3      H2             24.6764935020       54.0070498947       12.8785624634  TIP3      4723            0.0000000000
     31520      4860  TIP3      OH2            26.1234471417       53.8541650871       13.6324654649  TIP3      4724            0.0000000000
     31521      4860  TIP3      H1             26.4305817132       52.9591615746       13.4129503396  TIP3      4724            0.0000000000
     31522      4860  TIP3      H2             26.3552842277       53.9103935601       14.5811128251  TIP3      4724            0.0000000000
     31523      4861  TIP3      OH2            29.0319854717       39.6335692177       13.2384976629  TIP3      4725            0.0000000000
     31524      4861  TIP3      H1             28.3738542820       38.9082518853       13.3202569457  TIP3      4725            0.0000000000
     31525      4861  TIP3      H2             29.6781297193       39.2470083564       12.6337459610  TIP3      4725            0.0000000000
     31526      4862  TIP3      OH2            34.8836912376       37.9442432000       12.4070081710  TIP3      4726            0.0000000000
     31527      4862  TIP3      H1             35.5369864720       38.3645746351       11.7985220454  TIP3      4726            0.0000000000
     31528      4862  TIP3      H2             34.0269367686       38.1754008420       11.9732623012  TIP3      4726            0.0000000000
     31529      4863  TIP3      OH2            36.5886328340       38.7246814978       10.4490595903  TIP3      4727            0.0000000000
     31530      4863  TIP3      H1             37.1342721841       38.0673592691        9.9558974351  TIP3      4727            0.0000000000
     31531      4863  TIP3      H2             37.2156793775       39.4777667289       10.5815101915  TIP3      4727            0.0000000000
     31532      4864  TIP3      OH2            21.6549526607       37.8945449802       10.6081654206  TIP3      4728            0.0000000000
     31533      4864  TIP3      H1             20.8708425000       37.7185163223       10.0424997704  TIP3      4728            0.0000000000
     31534      4864  TIP3      H2             22.2331773827       37.1401512975       10.3583509551  TIP3      4728            0.0000000000
     31535      4865  TIP3      OH2            20.6764497350       37.9152763581        6.0841196752  TIP3      4729            0.0000000000
     31536      4865  TIP3      H1             21.2608065326       38.5858361508        5.6536316719  TIP3      4729            0.0000000000
     31537      4865  TIP3      H2             20.1629064073       38.4222390282        6.7238550475  TIP3      4729            0.0000000000
     31538      4866  TIP3      OH2            26.3635633369       37.9129765294       10.3015746520  TIP3      4730            0.0000000000
     31539      4866  TIP3      H1             27.1783976826       37.9247263917        9.7766768842  TIP3      4730            0.0000000000
     31540      4866  TIP3      H2             26.1751104302       38.8591574618       10.4353266661  TIP3      4730            0.0000000000
     31541      4867  TIP3      OH2            32.2843008351       38.2482009479       11.2137746732  TIP3      4731            0.0000000000
     31542      4867  TIP3      H1             31.9347095929       38.3760022896       10.3173526777  TIP3      4731            0.0000000000
     31543      4867  TIP3      H2             31.7848503790       37.4386165051       11.4913359386  TIP3      4731            0.0000000000
     31544      4868  TIP3      OH2            33.3703499685       37.8690267780        6.6014836264  TIP3      4732            0.0000000000
     31545      4868  TIP3      H1             32.9208527653       38.7216681291        6.7077463566  TIP3      4732            0.0000000000
     31546      4868  TIP3      H2             33.0505833382       37.3781673729        7.3965282902  TIP3      4732            0.0000000000
     31547      4869  TIP3      OH2            20.1274965288       53.6607669482        7.0508670580  TIP3      4733            0.0000000000
     31548      4869  TIP3      H1             19.6244968327       54.0379951494        6.2984430316  TIP3      4733            0.0000000000
     31549      4869  TIP3      H2             20.5612060840       54.4691141689        7.3607386893  TIP3      4733            0.0000000000
     31550      4870  TIP3      OH2            22.6256081239       39.2770688940        4.7545973201  TIP3      4734            0.0000000000
     31551      4870  TIP3      H1             23.3028284683       38.5933661386        4.6297728186  TIP3      4734            0.0000000000
     31552      4870  TIP3      H2             23.1562406764       40.0147505305        5.1023222615  TIP3      4734            0.0000000000
     31553      4871  TIP3      OH2            28.0147123879       40.6559569296        6.8375877048  TIP3      4735            0.0000000000
     31554      4871  TIP3      H1             28.3395168764       40.0593918985        7.5384486697  TIP3      4735            0.0000000000
     31555      4871  TIP3      H2             27.9394790517       41.4879093011        7.3374279674  TIP3      4735            0.0000000000
     31556      4872  TIP3      OH2            29.0746731525       56.0831878995        4.8952392402  TIP3      4736            0.0000000000
     31557      4872  TIP3      H1             29.7780819352       56.6592595345        4.5601485449  TIP3      4736            0.0000000000
     31558      4872  TIP3      H2             29.4095449007       55.2330033446        4.5571152754  TIP3      4736            0.0000000000
     31559      4873  TIP3      OH2            35.7556650943       54.6587041314        8.1577123313  TIP3      4737            0.0000000000
     31560      4873  TIP3      H1             36.2080558198       53.8420819928        7.8385193975  TIP3      4737            0.0000000000
     31561      4873  TIP3      H2             36.2424454342       55.4031819427        7.7533378587  TIP3      4737            0.0000000000
     31562      4874  TIP3      OH2            21.3804894225       38.8558842248       19.4770957644  TIP3      4738            0.0000000000
     31563      4874  TIP3      H1             20.9691162924       37.9868988407       19.6655029069  TIP3      4738            0.0000000000
     31564      4874  TIP3      H2             22.1969518879       38.7672077558       20.0180528604  TIP3      4738            0.0000000000
     31565      4875  TIP3      OH2            23.2892432328       38.4008999163       21.3524310731  TIP3      4739            0.0000000000
     31566      4875  TIP3      H1             24.2107131729       38.3851100721       21.0424216088  TIP3      4739            0.0000000000
     31567      4875  TIP3      H2             23.2474099564       37.5215450036       21.7604181614  TIP3      4739            0.0000000000
     31568      4876  TIP3      OH2            23.1117982205       55.4944120768        3.4790308933  TIP3      4740            0.0000000000
     31569      4876  TIP3      H1             22.2045120481       55.7273007831        3.1926765991  TIP3      4740            0.0000000000
     31570      4876  TIP3      H2             22.9418214324       54.9945983354        4.2862549945  TIP3      4740            0.0000000000
     31571      4877  TIP3      OH2            32.1153520971       37.6258504648       21.8320263414  TIP3      4741            0.0000000000
     31572      4877  TIP3      H1             32.6865110127       37.8464445065       22.6081400447  TIP3      4741            0.0000000000
     31573      4877  TIP3      H2             32.8190396220       37.5876892040       21.1488483526  TIP3      4741            0.0000000000
     31574      4878  TIP3      OH2            35.2489995565       53.9123967679       20.0485753254  TIP3      4742            0.0000000000
     31575      4878  TIP3      H1             34.5474894040       53.7103966837       19.3853306791  TIP3      4742            0.0000000000
     31576      4878  TIP3      H2             34.9876697545       54.8237982614       20.3085977073  TIP3      4742            0.0000000000
     31577      4879  TIP3      OH2            50.0121488496       47.6162219488        9.8793783017  TIP3      4743            0.0000000000
     31578      4879  TIP3      H1             49.6549946723       48.4268966596        9.4246918964  TIP3      4743            0.0000000000
     31579      4879  TIP3      H2             49.4570121423       46.9270666811        9.4768101018  TIP3      4743            0.0000000000
     31580      4880  TIP3      OH2            48.7415301833       46.3526503960       13.1567419935  TIP3      4744            0.0000000000
     31581      4880  TIP3      H1             48.7633060363       46.0237517565       14.0838351800  TIP3      4744            0.0000000000
     31582      4880  TIP3      H2             48.1003183014       45.7384443739       12.7499787208  TIP3      4744            0.0000000000
     31583      4881  TIP3      OH2            41.0452174282       46.3687790704       15.0866542989  TIP3      4745            0.0000000000
     31584      4881  TIP3      H1             40.9876894453       45.5335521016       15.5795214016  TIP3      4745            0.0000000000
     31585      4881  TIP3      H2             41.5855966359       46.9104014344       15.6941376362  TIP3      4745            0.0000000000
     31586      4882  TIP3      OH2            52.4279123672       49.6466336437       12.3049468068  TIP3      4746            0.0000000000
     31587      4882  TIP3      H1             53.2543820977       49.1890244497       12.5273092056  TIP3      4746            0.0000000000
     31588      4882  TIP3      H2             52.5606371526       50.4829702579       12.7914299692  TIP3      4746            0.0000000000
     31589      4883  TIP3      OH2            41.8015936174       51.6045849781       12.5593228602  TIP3      4747            0.0000000000
     31590      4883  TIP3      H1             41.5184461824       50.6832471458       12.4310023676  TIP3      4747            0.0000000000
     31591      4883  TIP3      H2             42.7526632210       51.3985008566       12.7063520854  TIP3      4747            0.0000000000
     31592      4884  TIP3      OH2            38.8255681638       44.0538197732        8.8284703788  TIP3      4748            0.0000000000
     31593      4884  TIP3      H1             38.5464589845       44.9869603045        8.8872819363  TIP3      4748            0.0000000000
     31594      4884  TIP3      H2             38.0753082831       43.6754629144        8.3477103138  TIP3      4748            0.0000000000
     31595      4885  TIP3      OH2            38.7740513348       46.0979732107       11.4444284056  TIP3      4749            0.0000000000
     31596      4885  TIP3      H1             39.1621556265       45.2190915270       11.6646133825  TIP3      4749            0.0000000000
     31597      4885  TIP3      H2             39.4830636782       46.5090870741       10.9343796492  TIP3      4749            0.0000000000
     31598      4886  TIP3      OH2            49.5191974693       54.7819125056       11.6401263249  TIP3      4750            0.0000000000
     31599      4886  TIP3      H1             50.1940591098       54.2045298012       11.1911092751  TIP3      4750            0.0000000000
     31600      4886  TIP3      H2             49.2603950010       54.1975578899       12.3617658289  TIP3      4750            0.0000000000
     31601      4887  TIP3      OH2            46.6449829917       49.6001933337       14.4241514599  TIP3      4751            0.0000000000
     31602      4887  TIP3      H1             46.9521786721       49.1792713009       13.6145688365  TIP3      4751            0.0000000000
     31603      4887  TIP3      H2             47.4997811354       49.7671181963       14.8809707458  TIP3      4751            0.0000000000
     31604      4888  TIP3      OH2            55.6168213020       40.7325270524       14.0653772357  TIP3      4752            0.0000000000
     31605      4888  TIP3      H1             55.9548194306       40.9018484982       14.9585251744  TIP3      4752            0.0000000000
     31606      4888  TIP3      H2             56.4118551423       40.8850284516       13.5199181425  TIP3      4752            0.0000000000
     31607      4889  TIP3      OH2            50.7980401289       43.7434042872       14.4325808199  TIP3      4753            0.0000000000
     31608      4889  TIP3      H1             50.8686394517       42.8125296919       14.7273010226  TIP3      4753            0.0000000000
     31609      4889  TIP3      H2             50.7566743995       43.5701948438       13.4691039806  TIP3      4753            0.0000000000
     31610      4890  TIP3      OH2            43.6061107208       41.2578534552       11.1349857800  TIP3      4754            0.0000000000
     31611      4890  TIP3      H1             43.7103905819       42.0829102133       10.6244555740  TIP3      4754            0.0000000000
     31612      4890  TIP3      H2             43.0702069402       40.7332642331       10.4958248277  TIP3      4754            0.0000000000
     31613      4891  TIP3      OH2            50.8866805140       41.6831109108       10.0590531995  TIP3      4755            0.0000000000
     31614      4891  TIP3      H1             51.4646049719       41.4135316124       10.8054952663  TIP3      4755            0.0000000000
     31615      4891  TIP3      H2             51.2504455366       42.5469892961        9.8195732845  TIP3      4755            0.0000000000
     31616      4892  TIP3      OH2            39.8405559803       43.5227189799       11.9992688270  TIP3      4756            0.0000000000
     31617      4892  TIP3      H1             40.5646088855       43.4424677885       12.6475974342  TIP3      4756            0.0000000000
     31618      4892  TIP3      H2             40.3113206323       43.2430141758       11.1848634729  TIP3      4756            0.0000000000
     31619      4893  TIP3      OH2            44.6984223663       45.1773884438       11.6715367309  TIP3      4757            0.0000000000
     31620      4893  TIP3      H1             45.5296851463       44.7053158421       11.8885850021  TIP3      4757            0.0000000000
     31621      4893  TIP3      H2             44.2911843420       44.5976675067       10.9926699147  TIP3      4757            0.0000000000
     31622      4894  TIP3      OH2            55.8289526529       41.7336119335       16.9927599202  TIP3      4758            0.0000000000
     31623      4894  TIP3      H1             55.3042268148       42.4966447127       16.6592027208  TIP3      4758            0.0000000000
     31624      4894  TIP3      H2             56.2581830920       42.1709761695       17.7460835707  TIP3      4758            0.0000000000
     31625      4895  TIP3      OH2            42.3518319360       40.5713233732       15.4683407252  TIP3      4759            0.0000000000
     31626      4895  TIP3      H1             41.9807498945       41.1055540893       14.7353711631  TIP3      4759            0.0000000000
     31627      4895  TIP3      H2             41.8495131078       40.9275744712       16.2127857707  TIP3      4759            0.0000000000
     31628      4896  TIP3      OH2            49.0403155359       49.8193610177        8.9028827374  TIP3      4760            0.0000000000
     31629      4896  TIP3      H1             49.0089128015       49.9730650407        7.9423616342  TIP3      4760            0.0000000000
     31630      4896  TIP3      H2             48.3928108255       50.5001352867        9.1983591767  TIP3      4760            0.0000000000
     31631      4897  TIP3      OH2            44.4750890698       48.2079649376       15.6702962085  TIP3      4761            0.0000000000
     31632      4897  TIP3      H1             43.7712046498       48.8452002371       15.8930727011  TIP3      4761            0.0000000000
     31633      4897  TIP3      H2             45.0876211893       48.7987068603       15.1884370281  TIP3      4761            0.0000000000
     31634      4898  TIP3      OH2            53.3785124594       41.7834979814       12.3333893090  TIP3      4762            0.0000000000
     31635      4898  TIP3      H1             54.0226202073       41.0575896913       12.3043196876  TIP3      4762            0.0000000000
     31636      4898  TIP3      H2             53.7642934979       42.3335256237       13.0539421918  TIP3      4762            0.0000000000
     31637      4899  TIP3      OH2            42.1442269111       42.4544702570       13.3731913594  TIP3      4763            0.0000000000
     31638      4899  TIP3      H1             42.7547127468       43.0931791828       13.8176148941  TIP3      4763            0.0000000000
     31639      4899  TIP3      H2             42.6735359555       42.1833123781       12.5907158407  TIP3      4763            0.0000000000
     31640      4900  TIP3      OH2            43.1663217604       50.5654013779       16.2972829427  TIP3      4764            0.0000000000
     31641      4900  TIP3      H1             43.1006661844       51.3894750257       15.7972742835  TIP3      4764            0.0000000000
     31642      4900  TIP3      H2             42.3192140695       50.5842258106       16.8026458439  TIP3      4764            0.0000000000
     31643      4901  TIP3      OH2            39.0260362667       49.7031411715        7.3052700833  TIP3      4765            0.0000000000
     31644      4901  TIP3      H1             39.0959247525       50.2550515541        6.5059947406  TIP3      4765            0.0000000000
     31645      4901  TIP3      H2             39.4207927842       50.3185472710        7.9672000737  TIP3      4765            0.0000000000
     31646      4902  TIP3      OH2            52.9059916562       51.7867086863       13.9715876539  TIP3      4766            0.0000000000
     31647      4902  TIP3      H1             51.9540336021       51.9907665099       14.0827350185  TIP3      4766            0.0000000000
     31648      4902  TIP3      H2             53.2008168245       52.6674662354       13.6684780480  TIP3      4766            0.0000000000
     31649      4903  TIP3      OH2            53.1578552751       39.7792341220       15.0682489454  TIP3      4767            0.0000000000
     31650      4903  TIP3      H1             52.3689522390       40.1002257569       14.5882429087  TIP3      4767            0.0000000000
     31651      4903  TIP3      H2             53.8789201036       40.1226592535       14.4949611953  TIP3      4767            0.0000000000
     31652      4904  TIP3      OH2            45.6925902833       37.7280607704       13.0146194201  TIP3      4768            0.0000000000
     31653      4904  TIP3      H1             45.2836692642       36.8636324723       13.1578869385  TIP3      4768            0.0000000000
     31654      4904  TIP3      H2             44.8816183149       38.2978423164       13.1345144151  TIP3      4768            0.0000000000
     31655      4905  TIP3      OH2            51.4317624349       53.3618074823       10.4891140115  TIP3      4769            0.0000000000
     31656      4905  TIP3      H1             51.6486074267       52.5956277780        9.9063135825  TIP3      4769            0.0000000000
     31657      4905  TIP3      H2             52.2138093902       53.9538166342       10.3616327274  TIP3      4769            0.0000000000
     31658      4906  TIP3      OH2            51.9582672521       51.1745790163        9.0919492352  TIP3      4770            0.0000000000
     31659      4906  TIP3      H1             51.9992465871       50.5953221817        8.3072189369  TIP3      4770            0.0000000000
     31660      4906  TIP3      H2             52.0427006232       50.5406659013        9.8136589300  TIP3      4770            0.0000000000
     31661      4907  TIP3      OH2            53.7238234639       50.1314382766       17.9307401922  TIP3      4771            0.0000000000
     31662      4907  TIP3      H1             53.9692637832       49.4870321459       17.2203329263  TIP3      4771            0.0000000000
     31663      4907  TIP3      H2             53.8259727343       50.9748032106       17.4311577872  TIP3      4771            0.0000000000
     31664      4908  TIP3      OH2            48.4740117297       46.5781292551        7.4362192349  TIP3      4772            0.0000000000
     31665      4908  TIP3      H1             47.9586580640       47.4145751169        7.3693762793  TIP3      4772            0.0000000000
     31666      4908  TIP3      H2             49.3080601189       46.7775170977        6.9586319664  TIP3      4772            0.0000000000
     31667      4909  TIP3      OH2            48.6139064906       45.8857418066        4.3075530323  TIP3      4773            0.0000000000
     31668      4909  TIP3      H1             49.2563912745       46.3289553002        4.8765598242  TIP3      4773            0.0000000000
     31669      4909  TIP3      H2             48.7275530339       44.9630224688        4.5750886656  TIP3      4773            0.0000000000
     31670      4910  TIP3      OH2            55.8318210125       46.5275400493       16.1358624116  TIP3      4774            0.0000000000
     31671      4910  TIP3      H1             55.1582643915       47.2351019312       16.0473664435  TIP3      4774            0.0000000000
     31672      4910  TIP3      H2             56.4834487977       46.7996186788       15.4592566527  TIP3      4774            0.0000000000
     31673      4911  TIP3      OH2            52.3927936914       47.1154469889        8.4581164925  TIP3      4775            0.0000000000
     31674      4911  TIP3      H1             51.5747951685       47.2084421619        8.9917694717  TIP3      4775            0.0000000000
     31675      4911  TIP3      H2             52.9772969666       46.6311478366        9.0834442316  TIP3      4775            0.0000000000
     31676      4912  TIP3      OH2            52.1136623844       45.1241766539       17.7598026697  TIP3      4776            0.0000000000
     31677      4912  TIP3      H1             52.2121938584       45.9745435658       18.2305753405  TIP3      4776            0.0000000000
     31678      4912  TIP3      H2             51.3504021492       45.3300918813       17.1905043039  TIP3      4776            0.0000000000
     31679      4913  TIP3      OH2            43.7773020048       47.1195028505        9.9018224059  TIP3      4777            0.0000000000
     31680      4913  TIP3      H1             43.5786677971       46.6544620847        9.0670164863  TIP3      4777            0.0000000000
     31681      4913  TIP3      H2             44.3802226106       46.5013533828       10.3580330965  TIP3      4777            0.0000000000
     31682      4914  TIP3      OH2            44.6893029960       50.8506324336       12.9041622205  TIP3      4778            0.0000000000
     31683      4914  TIP3      H1             44.7372835027       50.4952911688       12.0019298599  TIP3      4778            0.0000000000
     31684      4914  TIP3      H2             45.4240091283       50.4109303850       13.3653706187  TIP3      4778            0.0000000000
     31685      4915  TIP3      OH2            43.8056138590       46.2023408525       13.9922459802  TIP3      4779            0.0000000000
     31686      4915  TIP3      H1             44.1496747835       46.1665174331       13.0688773911  TIP3      4779            0.0000000000
     31687      4915  TIP3      H2             44.3476223132       46.8776873139       14.4359302223  TIP3      4779            0.0000000000
     31688      4916  TIP3      OH2            50.2785390480       52.1492650082       14.6579119993  TIP3      4780            0.0000000000
     31689      4916  TIP3      H1             50.0808784561       52.8949074658       15.2611464613  TIP3      4780            0.0000000000
     31690      4916  TIP3      H2             50.0417148589       51.3868534307       15.2131407954  TIP3      4780            0.0000000000
     31691      4917  TIP3      OH2            44.6280037614       50.4369080248       18.5881078505  TIP3      4781            0.0000000000
     31692      4917  TIP3      H1             44.0783898904       51.1330488692       19.0162799277  TIP3      4781            0.0000000000
     31693      4917  TIP3      H2             44.2147493230       50.3998831171       17.6968310831  TIP3      4781            0.0000000000
     31694      4918  TIP3      OH2            50.8742496984       46.3625761712        6.2620435944  TIP3      4782            0.0000000000
     31695      4918  TIP3      H1             51.5842562529       46.5614596859        6.9130931804  TIP3      4782            0.0000000000
     31696      4918  TIP3      H2             51.2817608568       46.8233811450        5.4974952052  TIP3      4782            0.0000000000
     31697      4919  TIP3      OH2            41.8620757784       47.5370715526       17.3543713000  TIP3      4783            0.0000000000
     31698      4919  TIP3      H1             42.2336206354       48.2984537325       17.8240509708  TIP3      4783            0.0000000000
     31699      4919  TIP3      H2             41.3748737090       47.0923682540       18.0711068519  TIP3      4783            0.0000000000
     31700      4920  TIP3      OH2            47.7417171562       52.2108922111        9.2206957169  TIP3      4784            0.0000000000
     31701      4920  TIP3      H1             47.7769326215       52.9636006310        9.8229603403  TIP3      4784            0.0000000000
     31702      4920  TIP3      H2             47.5346337156       52.6229067925        8.3694177696  TIP3      4784            0.0000000000
     31703      4921  TIP3      OH2            43.4695459896       52.5090831986       19.8218664885  TIP3      4785            0.0000000000
     31704      4921  TIP3      H1             43.2763707197       52.8899145598       18.9330665489  TIP3      4785            0.0000000000
     31705      4921  TIP3      H2             42.5760135608       52.3548691318       20.1665274136  TIP3      4785            0.0000000000
     31706      4922  TIP3      OH2            54.6592130159       37.7636834069        6.4333905038  TIP3      4786            0.0000000000
     31707      4922  TIP3      H1             53.7301664406       37.9894188653        6.6671194336  TIP3      4786            0.0000000000
     31708      4922  TIP3      H2             54.9739902662       38.6319176577        6.1221007274  TIP3      4786            0.0000000000
     31709      4923  TIP3      OH2            42.6989667958       46.1602344451        7.4373291816  TIP3      4787            0.0000000000
     31710      4923  TIP3      H1             42.0747277259       46.9110348399        7.3022254021  TIP3      4787            0.0000000000
     31711      4923  TIP3      H2             42.1090557480       45.3982710421        7.4855282879  TIP3      4787            0.0000000000
     31712      4924  TIP3      OH2            55.7787950173       52.1672326496        4.8374762634  TIP3      4788            0.0000000000
     31713      4924  TIP3      H1             55.9484760059       53.1266379625        4.8411166752  TIP3      4788            0.0000000000
     31714      4924  TIP3      H2             56.6851973362       51.7935442926        4.8364637568  TIP3      4788            0.0000000000
     31715      4925  TIP3      OH2            38.9272794767       49.1442809657       17.2118424030  TIP3      4789            0.0000000000
     31716      4925  TIP3      H1             38.5977037375       49.0152245391       16.3141530640  TIP3      4789            0.0000000000
     31717      4925  TIP3      H2             39.4717320984       48.3364199407       17.2586021553  TIP3      4789            0.0000000000
     31718      4926  TIP3      OH2            38.8278236094       51.7230357370       13.5314887279  TIP3      4790            0.0000000000
     31719      4926  TIP3      H1             39.7087627344       51.4433679385       13.2269061262  TIP3      4790            0.0000000000
     31720      4926  TIP3      H2             39.1069036820       52.2244571078       14.3334949781  TIP3      4790            0.0000000000
     31721      4927  TIP3      OH2            56.5125733937       52.6663210173       19.5297968233  TIP3      4791            0.0000000000
     31722      4927  TIP3      H1             56.6405662794       51.7331811384       19.7524428893  TIP3      4791            0.0000000000
     31723      4927  TIP3      H2             55.6069993686       52.7791473396       19.8914603723  TIP3      4791            0.0000000000
     31724      4928  TIP3      OH2            47.2394984890       52.0042446281       18.2112442476  TIP3      4792            0.0000000000
     31725      4928  TIP3      H1             47.2373906704       52.8532597269       18.7100862213  TIP3      4792            0.0000000000
     31726      4928  TIP3      H2             46.3663807078       51.6191872977       18.4067832535  TIP3      4792            0.0000000000
     31727      4929  TIP3      OH2            47.7270724603       55.5304908466        7.7126394646  TIP3      4793            0.0000000000
     31728      4929  TIP3      H1             47.7738933307       55.6666096350        6.7445909546  TIP3      4793            0.0000000000
     31729      4929  TIP3      H2             47.8723266592       56.4293732401        8.0728489300  TIP3      4793            0.0000000000
     31730      4930  TIP3      OH2            41.3792201788       54.5677852264        9.9129409187  TIP3      4794            0.0000000000
     31731      4930  TIP3      H1             41.8728600959       54.4858439698       10.7604721145  TIP3      4794            0.0000000000
     31732      4930  TIP3      H2             40.4950035616       54.2507335315       10.1636310992  TIP3      4794            0.0000000000
     31733      4931  TIP3      OH2            50.8589677091       54.7711866361        4.6395045469  TIP3      4795            0.0000000000
     31734      4931  TIP3      H1             51.5004657452       54.0850395781        4.3532430241  TIP3      4795            0.0000000000
     31735      4931  TIP3      H2             51.3297233963       55.2030266557        5.3783696735  TIP3      4795            0.0000000000
     31736      4932  TIP3      OH2            50.5325567784       55.0786477000        8.0779490558  TIP3      4796            0.0000000000
     31737      4932  TIP3      H1             49.5687397325       54.9613882598        8.1834986745  TIP3      4796            0.0000000000
     31738      4932  TIP3      H2             50.8720923136       54.2485026160        8.4332106942  TIP3      4796            0.0000000000
     31739      4933  TIP3      OH2            53.1635109315       43.3250872949       19.9069959515  TIP3      4797            0.0000000000
     31740      4933  TIP3      H1             53.2150927216       43.9156075960       19.1387805876  TIP3      4797            0.0000000000
     31741      4933  TIP3      H2             53.2853331018       42.4539622810       19.4787770208  TIP3      4797            0.0000000000
     31742      4934  TIP3      OH2            41.1509216889       50.6582502717       18.0144981641  TIP3      4798            0.0000000000
     31743      4934  TIP3      H1             41.4815670467       50.1607590663       18.8090870120  TIP3      4798            0.0000000000
     31744      4934  TIP3      H2             40.3661278133       50.1242444031       17.7620818013  TIP3      4798            0.0000000000
     31745      4935  TIP3      OH2            43.5030704515       39.0525008613       13.6109004266  TIP3      4799            0.0000000000
     31746      4935  TIP3      H1             42.5758627820       38.9656939520       13.2889395186  TIP3      4799            0.0000000000
     31747      4935  TIP3      H2             43.3770933481       39.6810354026       14.3477521939  TIP3      4799            0.0000000000
     31748      4936  TIP3      OH2            48.3409390335       38.2666019207       16.7820271473  TIP3      4800            0.0000000000
     31749      4936  TIP3      H1             48.7259775876       38.0503979664       17.6662962166  TIP3      4800            0.0000000000
     31750      4936  TIP3      H2             47.3881364322       38.4308567681       16.9847033951  TIP3      4800            0.0000000000
     31751      4937  TIP3      OH2            51.2199383393       42.4481792734       17.8836646181  TIP3      4801            0.0000000000
     31752      4937  TIP3      H1             50.4787469479       42.2830070291       18.5175658584  TIP3      4801            0.0000000000
     31753      4937  TIP3      H2             51.3725250375       43.4084784062       17.9755733849  TIP3      4801            0.0000000000
     31754      4938  TIP3      OH2            52.2876891850       47.6024825891        4.3705764877  TIP3      4802            0.0000000000
     31755      4938  TIP3      H1             52.2370499877       47.7438478642        3.4102766931  TIP3      4802            0.0000000000
     31756      4938  TIP3      H2             53.2107685359       47.8590216413        4.5535037664  TIP3      4802            0.0000000000
     31757      4939  TIP3      OH2            47.9566951378       41.3990251110        4.5728179838  TIP3      4803            0.0000000000
     31758      4939  TIP3      H1             47.5266830398       41.1751842121        5.4215320165  TIP3      4803            0.0000000000
     31759      4939  TIP3      H2             47.9617355611       40.5386697752        4.1454995418  TIP3      4803            0.0000000000
     31760      4940  TIP3      OH2            43.8653198143       43.7384509195       14.9403590722  TIP3      4804            0.0000000000
     31761      4940  TIP3      H1             43.1640598237       43.8699923614       15.6016846126  TIP3      4804            0.0000000000
     31762      4940  TIP3      H2             43.8861419105       44.6529534273       14.5671179076  TIP3      4804            0.0000000000
     31763      4941  TIP3      OH2            43.7481745554       43.5914280693        9.6929771369  TIP3      4805            0.0000000000
     31764      4941  TIP3      H1             42.7738890176       43.6398988712        9.5559869867  TIP3      4805            0.0000000000
     31765      4941  TIP3      H2             44.0399877914       43.2304194343        8.8226074378  TIP3      4805            0.0000000000
     31766      4942  TIP3      OH2            49.3106423173       44.8892680477        9.2615079140  TIP3      4806            0.0000000000
     31767      4942  TIP3      H1             48.8266859921       45.4022497173        8.5675357012  TIP3      4806            0.0000000000
     31768      4942  TIP3      H2             49.8230189778       44.2797927898        8.6798210775  TIP3      4806            0.0000000000
     31769      4943  TIP3      OH2            47.7488602676       44.9321528767       19.9809352685  TIP3      4807            0.0000000000
     31770      4943  TIP3      H1             47.6179365259       43.9838845154       20.2084486998  TIP3      4807            0.0000000000
     31771      4943  TIP3      H2             48.5833191157       45.1250942520       20.4494251897  TIP3      4807            0.0000000000
     31772      4944  TIP3      OH2            50.5930162215       44.0585958627       11.7128147947  TIP3      4808            0.0000000000
     31773      4944  TIP3      H1             50.3014108412       44.8306790360       11.1914242846  TIP3      4808            0.0000000000
     31774      4944  TIP3      H2             50.1054332509       43.3617804531       11.2544087942  TIP3      4808            0.0000000000
     31775      4945  TIP3      OH2            41.1355031862       43.8083516378       16.3011556208  TIP3      4809            0.0000000000
     31776      4945  TIP3      H1             41.7392883130       44.1918819354       16.9760342513  TIP3      4809            0.0000000000
     31777      4945  TIP3      H2             40.8518277626       42.9989078601       16.7763894326  TIP3      4809            0.0000000000
     31778      4946  TIP3      OH2            44.5223108630       41.6763506432        3.8923585419  TIP3      4810            0.0000000000
     31779      4946  TIP3      H1             44.2271089251       41.1250454309        4.6440871387  TIP3      4810            0.0000000000
     31780      4946  TIP3      H2             44.2219755429       42.5666950910        4.1623135714  TIP3      4810            0.0000000000
     31781      4947  TIP3      OH2            38.2219118343       40.9848793698       11.0743329143  TIP3      4811            0.0000000000
     31782      4947  TIP3      H1             38.7756900098       40.9652161917       11.8825556040  TIP3      4811            0.0000000000
     31783      4947  TIP3      H2             38.6612352731       41.6371737745       10.5117220078  TIP3      4811            0.0000000000
     31784      4948  TIP3      OH2            39.2908682547       41.5884389413        6.2117514080  TIP3      4812            0.0000000000
     31785      4948  TIP3      H1             39.8742310205       41.9741312716        5.5323714753  TIP3      4812            0.0000000000
     31786      4948  TIP3      H2             38.6595706157       42.3298427397        6.3598001887  TIP3      4812            0.0000000000
     31787      4949  TIP3      OH2            49.4630867410       45.7081704690       15.8284334126  TIP3      4813            0.0000000000
     31788      4949  TIP3      H1             49.9674331501       44.9898632637       15.3845400365  TIP3      4813            0.0000000000
     31789      4949  TIP3      H2             48.8927738692       45.1720596777       16.4220246632  TIP3      4813            0.0000000000
     31790      4950  TIP3      OH2            46.4653093269       41.2096187182       11.1473863763  TIP3      4814            0.0000000000
     31791      4950  TIP3      H1             45.5003219718       41.2384743227       11.3105655160  TIP3      4814            0.0000000000
     31792      4950  TIP3      H2             46.7925857470       40.7314816631       11.9451866828  TIP3      4814            0.0000000000
     31793      4951  TIP3      OH2            41.1391162397       43.0785920774        9.6443567059  TIP3      4815            0.0000000000
     31794      4951  TIP3      H1             40.3565975519       43.3822166276        9.1243771890  TIP3      4815            0.0000000000
     31795      4951  TIP3      H2             41.2524449506       42.1467110128        9.3565690606  TIP3      4815            0.0000000000
     31796      4952  TIP3      OH2            44.5095997169       42.8668333321        7.2750699320  TIP3      4816            0.0000000000
     31797      4952  TIP3      H1             45.4453965048       43.0965427774        7.4280280430  TIP3      4816            0.0000000000
     31798      4952  TIP3      H2             44.2295634402       43.5653087847        6.6562334041  TIP3      4816            0.0000000000
     31799      4953  TIP3      OH2            50.8162804120       40.7788278952       13.8299331445  TIP3      4817            0.0000000000
     31800      4953  TIP3      H1             50.3152888771       40.5175264128       14.6382552142  TIP3      4817            0.0000000000
     31801      4953  TIP3      H2             50.6304892669       40.0632056967       13.2048699173  TIP3      4817            0.0000000000
     31802      4954  TIP3      OH2            43.4780850248       44.2356691033        4.5049433609  TIP3      4818            0.0000000000
     31803      4954  TIP3      H1             43.1626128663       44.2355599565        3.5771283681  TIP3      4818            0.0000000000
     31804      4954  TIP3      H2             44.3313492908       44.7040662075        4.3886618270  TIP3      4818            0.0000000000
     31805      4955  TIP3      OH2            53.3340570177       56.6249273673       20.3182176567  TIP3      4819            0.0000000000
     31806      4955  TIP3      H1             53.8723076119       56.7337889506       19.5049682986  TIP3      4819            0.0000000000
     31807      4955  TIP3      H2             53.4873169904       57.5063841679       20.6975209137  TIP3      4819            0.0000000000
     31808      4956  TIP3      OH2            41.7566427371       48.9764203622       19.9866701065  TIP3      4820            0.0000000000
     31809      4956  TIP3      H1             42.3093337034       49.2312988331       20.7532581610  TIP3      4820            0.0000000000
     31810      4956  TIP3      H2             40.9573593799       48.6071106066       20.4310154685  TIP3      4820            0.0000000000
     31811      4957  TIP3      OH2            47.0551343045       43.8979700406       12.6097130375  TIP3      4821            0.0000000000
     31812      4957  TIP3      H1             47.8735406923       43.4389207160       12.3521768837  TIP3      4821            0.0000000000
     31813      4957  TIP3      H2             46.6252194404       43.2504937765       13.2014733422  TIP3      4821            0.0000000000
     31814      4958  TIP3      OH2            41.9378761616       40.4693365695        9.1747317722  TIP3      4822            0.0000000000
     31815      4958  TIP3      H1             41.4675337607       39.6406548508        9.4028890049  TIP3      4822            0.0000000000
     31816      4958  TIP3      H2             42.0675625130       40.3894306960        8.2183688056  TIP3      4822            0.0000000000
     31817      4959  TIP3      OH2            45.9703411388       42.1008401415       14.9988967799  TIP3      4823            0.0000000000
     31818      4959  TIP3      H1             45.2025862733       42.7078321648       14.8861975442  TIP3      4823            0.0000000000
     31819      4959  TIP3      H2             46.6339957056       42.6893736402       15.3873406372  TIP3      4823            0.0000000000
     31820      4960  TIP3      OH2            46.7026796448       48.6395623206        7.3164939068  TIP3      4824            0.0000000000
     31821      4960  TIP3      H1             45.9599694859       48.0948440287        6.9518171050  TIP3      4824            0.0000000000
     31822      4960  TIP3      H2             46.2504813142       49.0478508180        8.0835675006  TIP3      4824            0.0000000000
     31823      4961  TIP3      OH2            54.0325158118       48.6261229403       15.8515653461  TIP3      4825            0.0000000000
     31824      4961  TIP3      H1             54.3473877070       49.1590140303       15.0902678524  TIP3      4825            0.0000000000
     31825      4961  TIP3      H2             53.2403403213       48.2421876964       15.4418696575  TIP3      4825            0.0000000000
     31826      4962  TIP3      OH2            50.3819810794       41.8417835139        5.8666985428  TIP3      4826            0.0000000000
     31827      4962  TIP3      H1             49.6362324992       42.0092077118        5.2633503931  TIP3      4826            0.0000000000
     31828      4962  TIP3      H2             50.5712233836       42.7363608216        6.2100899859  TIP3      4826            0.0000000000
     31829      4963  TIP3      OH2            47.7437225886       49.2416058423       18.0542025976  TIP3      4827            0.0000000000
     31830      4963  TIP3      H1             47.3021618469       48.8999297858       18.8524223439  TIP3      4827            0.0000000000
     31831      4963  TIP3      H2             47.9193183010       50.1650703403       18.3024073608  TIP3      4827            0.0000000000
     31832      4964  TIP3      OH2            50.7501643009       43.9491872712        7.3266641392  TIP3      4828            0.0000000000
     31833      4964  TIP3      H1             51.6893873870       43.7494263538        7.5539302937  TIP3      4828            0.0000000000
     31834      4964  TIP3      H2             50.8075468631       44.8726552172        6.9919063068  TIP3      4828            0.0000000000
     31835      4965  TIP3      OH2            41.8485711460       48.3415451486       12.4350167013  TIP3      4829            0.0000000000
     31836      4965  TIP3      H1             42.1217826400       48.0114183963       11.5646458568  TIP3      4829            0.0000000000
     31837      4965  TIP3      H2             42.1117891653       47.6074385326       13.0148479342  TIP3      4829            0.0000000000
     31838      4966  TIP3      OH2            48.6478376627       49.9101569164        6.0329251969  TIP3      4830            0.0000000000
     31839      4966  TIP3      H1             48.4510310746       50.8453658315        6.2526828783  TIP3      4830            0.0000000000
     31840      4966  TIP3      H2             47.8966189315       49.4353054407        6.4684753805  TIP3      4830            0.0000000000
     31841      4967  TIP3      OH2            39.2506887991       46.4583971146       18.3695878310  TIP3      4831            0.0000000000
     31842      4967  TIP3      H1             38.7632152801       45.7867174926       18.8900123363  TIP3      4831            0.0000000000
     31843      4967  TIP3      H2             38.7328384863       46.3846485313       17.5454832443  TIP3      4831            0.0000000000
     31844      4968  TIP3      OH2            45.2390560927       46.1718019211       19.8181127802  TIP3      4832            0.0000000000
     31845      4968  TIP3      H1             45.2284832993       45.7590942990       18.9450888061  TIP3      4832            0.0000000000
     31846      4968  TIP3      H2             46.1054415917       45.8525619118       20.1574965911  TIP3      4832            0.0000000000
     31847      4969  TIP3      OH2            50.5102170624       51.6074682946       18.0765162138  TIP3      4833            0.0000000000
     31848      4969  TIP3      H1             49.5867341765       51.7464418298       17.8472522115  TIP3      4833            0.0000000000
     31849      4969  TIP3      H2             50.5010820886       51.9461305159       18.9922311190  TIP3      4833            0.0000000000
     31850      4970  TIP3      OH2            56.0711419835       43.5866573587        6.7346083849  TIP3      4834            0.0000000000
     31851      4970  TIP3      H1             55.5199657088       43.3635686383        5.9523686998  TIP3      4834            0.0000000000
     31852      4970  TIP3      H2             56.1859192590       44.5409516510        6.5839721237  TIP3      4834            0.0000000000
     31853      4971  TIP3      OH2            56.0381356763       49.4818230809       19.0329163956  TIP3      4835            0.0000000000
     31854      4971  TIP3      H1             55.2063844995       49.8721053159       18.6703114334  TIP3      4835            0.0000000000
     31855      4971  TIP3      H2             56.6089883014       49.4308522864       18.2312025240  TIP3      4835            0.0000000000
     31856      4972  TIP3      OH2            53.6788461017       52.9433651889        6.7251796439  TIP3      4836            0.0000000000
     31857      4972  TIP3      H1             53.3955033362       52.1658955678        7.2160345283  TIP3      4836            0.0000000000
     31858      4972  TIP3      H2             54.2716003406       52.5613880585        6.0529301211  TIP3      4836            0.0000000000
     31859      4973  TIP3      OH2            51.8332593923       47.1536846841       14.2121651351  TIP3      4837            0.0000000000
     31860      4973  TIP3      H1             51.3100361446       46.6158060803       14.8311772095  TIP3      4837            0.0000000000
     31861      4973  TIP3      H2             52.3511140511       46.4477259098       13.7460483428  TIP3      4837            0.0000000000
     31862      4974  TIP3      OH2            43.8379292558       51.5244038293       10.2349976984  TIP3      4838            0.0000000000
     31863      4974  TIP3      H1             44.0340450385       52.4529813325        9.9844843988  TIP3      4838            0.0000000000
     31864      4974  TIP3      H2             42.9195079993       51.4416335397        9.9240757162  TIP3      4838            0.0000000000
     31865      4975  TIP3      OH2            40.0477708439       47.0849989840        3.8938314120  TIP3      4839            0.0000000000
     31866      4975  TIP3      H1             40.4122127539       47.5217843075        4.6897734181  TIP3      4839            0.0000000000
     31867      4975  TIP3      H2             39.3517539387       46.5397770704        4.3024296191  TIP3      4839            0.0000000000
     31868      4976  TIP3      OH2            45.5583369819       49.4030095525        9.8910892886  TIP3      4840            0.0000000000
     31869      4976  TIP3      H1             45.0009198862       50.2087531429        9.9393025137  TIP3      4840            0.0000000000
     31870      4976  TIP3      H2             44.9248607754       48.6733942593       10.0312249798  TIP3      4840            0.0000000000
     31871      4977  TIP3      OH2            46.0517249319       53.7140153636       16.3538081055  TIP3      4841            0.0000000000
     31872      4977  TIP3      H1             46.7644068699       54.2887532013       16.0172020568  TIP3      4841            0.0000000000
     31873      4977  TIP3      H2             46.5796634181       53.1115373599       16.9232368016  TIP3      4841            0.0000000000
     31874      4978  TIP3      OH2            44.0801676756       54.1482640789        9.1872713472  TIP3      4842            0.0000000000
     31875      4978  TIP3      H1             43.1292534997       54.3447845768        9.2505633807  TIP3      4842            0.0000000000
     31876      4978  TIP3      H2             44.4567280559       54.9813416697        9.5488275726  TIP3      4842            0.0000000000
     31877      4979  TIP3      OH2            49.1411028237       49.4027833412       15.5387667336  TIP3      4843            0.0000000000
     31878      4979  TIP3      H1             48.6998429276       49.2854658364       16.4131565960  TIP3      4843            0.0000000000
     31879      4979  TIP3      H2             49.8658496342       48.7625964406       15.6286364530  TIP3      4843            0.0000000000
     31880      4980  TIP3      OH2            51.8566310423       50.7650371852        5.0994949804  TIP3      4844            0.0000000000
     31881      4980  TIP3      H1             52.1015368865       50.2764163529        5.9188408317  TIP3      4844            0.0000000000
     31882      4980  TIP3      H2             50.9620575677       50.4270724019        4.9626970602  TIP3      4844            0.0000000000
     31883      4981  TIP3      OH2            52.2380397007       53.9908899639       17.8525570377  TIP3      4845            0.0000000000
     31884      4981  TIP3      H1             51.4149785733       53.4668857943       17.7403701491  TIP3      4845            0.0000000000
     31885      4981  TIP3      H2             52.1754874344       54.6267080068       17.1131022804  TIP3      4845            0.0000000000
     31886      4982  TIP3      OH2            56.1684111496       54.9891257360        4.9991714437  TIP3      4846            0.0000000000
     31887      4982  TIP3      H1             56.4309643027       55.1146182804        4.0652239990  TIP3      4846            0.0000000000
     31888      4982  TIP3      H2             55.9421103842       55.8961386908        5.2851659642  TIP3      4846            0.0000000000
     31889      4983  TIP3      OH2            40.7708568353       41.6681467085       17.9581871479  TIP3      4847            0.0000000000
     31890      4983  TIP3      H1             40.0257349879       42.0755055132       18.4437044033  TIP3      4847            0.0000000000
     31891      4983  TIP3      H2             40.7324729949       40.7778738978       18.3401622163  TIP3      4847            0.0000000000
     31892      4984  TIP3      OH2            52.6560942739       49.4285147849        7.2032496962  TIP3      4848            0.0000000000
     31893      4984  TIP3      H1             52.4918775995       48.5378118829        7.5770368029  TIP3      4848            0.0000000000
     31894      4984  TIP3      H2             53.6389153746       49.4102362460        7.1601888215  TIP3      4848            0.0000000000
     31895      4985  TIP3      OH2            39.8141046411       52.9324307251       15.7180186177  TIP3      4849            0.0000000000
     31896      4985  TIP3      H1             40.6399166632       52.7764539827       16.2112074731  TIP3      4849            0.0000000000
     31897      4985  TIP3      H2             39.2698677154       53.4066190370       16.3723859808  TIP3      4849            0.0000000000
     31898      4986  TIP3      OH2            44.4233171056       51.1496534960        5.5045727979  TIP3      4850            0.0000000000
     31899      4986  TIP3      H1             45.0930860720       50.6931041373        6.0345063734  TIP3      4850            0.0000000000
     31900      4986  TIP3      H2             44.6098086056       52.0914668796        5.7313893613  TIP3      4850            0.0000000000
     31901      4987  TIP3      OH2            41.0498488358       48.2288979408        6.3294274046  TIP3      4851            0.0000000000
     31902      4987  TIP3      H1             40.2907840078       48.6766165596        6.7667917844  TIP3      4851            0.0000000000
     31903      4987  TIP3      H2             41.5741221248       48.9770177537        5.9893813439  TIP3      4851            0.0000000000
     31904      4988  TIP3      OH2            49.9843706640       40.3224686159       16.3076666997  TIP3      4852            0.0000000000
     31905      4988  TIP3      H1             50.4822105013       40.7085958579       17.0468625404  TIP3      4852            0.0000000000
     31906      4988  TIP3      H2             49.4349335359       39.6080435433       16.7017748637  TIP3      4852            0.0000000000
     31907      4989  TIP3      OH2            49.6753072352       40.3563988990        7.9553922995  TIP3      4853            0.0000000000
     31908      4989  TIP3      H1             49.8550424538       40.9541914729        7.1901236174  TIP3      4853            0.0000000000
     31909      4989  TIP3      H2             50.2684326947       40.7384097944        8.6346878950  TIP3      4853            0.0000000000
     31910      4990  TIP3      OH2            47.7018494844       52.5881356820        6.3595821752  TIP3      4854            0.0000000000
     31911      4990  TIP3      H1             46.8639258000       53.0684180627        6.2130755421  TIP3      4854            0.0000000000
     31912      4990  TIP3      H2             48.3318952586       53.1307642101        5.8613932030  TIP3      4854            0.0000000000
     31913      4991  TIP3      OH2            47.1729686668       42.4282641299        8.8737171687  TIP3      4855            0.0000000000
     31914      4991  TIP3      H1             47.4946217675       43.3060873933        9.1283565091  TIP3      4855            0.0000000000
     31915      4991  TIP3      H2             46.9747431613       41.9993779883        9.7422296285  TIP3      4855            0.0000000000
     31916      4992  TIP3      OH2            48.0929390053       43.7699761032       17.4612287627  TIP3      4856            0.0000000000
     31917      4992  TIP3      H1             47.8359220784       44.3498551873       18.2141082564  TIP3      4856            0.0000000000
     31918      4992  TIP3      H2             48.1640829715       42.8982877674       17.8779729107  TIP3      4856            0.0000000000
     31919      4993  TIP3      OH2            47.7896691931       39.1656464808        9.4147700363  TIP3      4857            0.0000000000
     31920      4993  TIP3      H1             47.4625196229       39.8089245412       10.0701240532  TIP3      4857            0.0000000000
     31921      4993  TIP3      H2             48.4719452846       39.7075075939        8.9572310489  TIP3      4857            0.0000000000
     31922      4994  TIP3      OH2            45.1443424710       53.6956808493        6.1189094494  TIP3      4858            0.0000000000
     31923      4994  TIP3      H1             45.4525738820       54.5911543767        5.8662626122  TIP3      4858            0.0000000000
     31924      4994  TIP3      H2             44.6250052106       53.9284249857        6.9161200634  TIP3      4858            0.0000000000
     31925      4995  TIP3      OH2            43.6207990773       40.3563612181        6.1872249414  TIP3      4859            0.0000000000
     31926      4995  TIP3      H1             43.7164740354       41.1816681246        6.6914071909  TIP3      4859            0.0000000000
     31927      4995  TIP3      H2             44.3856591964       39.8613571367        6.5292484870  TIP3      4859            0.0000000000
     31928      4996  TIP3      OH2            53.6282072475       40.9169170588       18.5509097212  TIP3      4860            0.0000000000
     31929      4996  TIP3      H1             52.7649560083       41.0137080120       18.1128881446  TIP3      4860            0.0000000000
     31930      4996  TIP3      H2             54.2223775466       40.8176665010       17.7885964170  TIP3      4860            0.0000000000
     31931      4997  TIP3      OH2            52.9111418406       45.1521167963       12.7933793091  TIP3      4861            0.0000000000
     31932      4997  TIP3      H1             52.1777419002       44.5167409167       12.6785044789  TIP3      4861            0.0000000000
     31933      4997  TIP3      H2             53.6065656030       44.5793133912       13.1790293316  TIP3      4861            0.0000000000
     31934      4998  TIP3      OH2            41.8242121137       50.9941448978        4.7299461732  TIP3      4862            0.0000000000
     31935      4998  TIP3      H1             42.5905212600       51.2173871247        5.2957578374  TIP3      4862            0.0000000000
     31936      4998  TIP3      H2             42.3086451365       50.6307842098        3.9791198455  TIP3      4862            0.0000000000
     31937      4999  TIP3      OH2            40.1593611618       43.8032911386        4.4644966589  TIP3      4863            0.0000000000
     31938      4999  TIP3      H1             40.7150353848       44.4234388493        3.9726045834  TIP3      4863            0.0000000000
     31939      4999  TIP3      H2             39.2615606851       44.0584018710        4.2024729787  TIP3      4863            0.0000000000
     31940      5000  TIP3      OH2            53.6021921077       54.4794463819       13.8115929827  TIP3      4864            0.0000000000
     31941      5000  TIP3      H1             53.3261667586       55.0985727315       13.1055215079  TIP3      4864            0.0000000000
     31942      5000  TIP3      H2             54.5665050287       54.6477238033       13.7721462639  TIP3      4864            0.0000000000
     31943      5001  TIP3      OH2            41.0464819878       38.4523864750       12.8926372426  TIP3      4865            0.0000000000
     31944      5001  TIP3      H1             40.9727671350       38.2153232038       11.9297435661  TIP3      4865            0.0000000000
     31945      5001  TIP3      H2             40.6634178924       37.6157837983       13.2416034761  TIP3      4865            0.0000000000
     31946      5002  TIP3      OH2            40.1561853645       51.7005324645        8.6499627013  TIP3      4866            0.0000000000
     31947      5002  TIP3      H1             39.3778191258       52.0039507863        9.1229944725  TIP3      4866            0.0000000000
     31948      5002  TIP3      H2             40.2845324801       52.4895247045        8.0864755766  TIP3      4866            0.0000000000
     31949      5003  TIP3      OH2            38.8207510069       55.5689404981       20.2081866782  TIP3      4867            0.0000000000
     31950      5003  TIP3      H1             39.7370198367       55.2717936465       20.0823228463  TIP3      4867            0.0000000000
     31951      5003  TIP3      H2             38.3042959633       54.7481512161       20.1533509438  TIP3      4867            0.0000000000
     31952      5004  TIP3      OH2            44.3912973304       53.9904374062       21.9585221052  TIP3      4868            0.0000000000
     31953      5004  TIP3      H1             45.3192502128       54.2376841185       21.8321844524  TIP3      4868            0.0000000000
     31954      5004  TIP3      H2             44.1232826800       53.6653022343       21.0742031995  TIP3      4868            0.0000000000
     31955      5005  TIP3      OH2            50.0927574340       52.6471392341       20.6574880225  TIP3      4869            0.0000000000
     31956      5005  TIP3      H1             49.7576852854       51.7951683744       21.0477182415  TIP3      4869            0.0000000000
     31957      5005  TIP3      H2             50.9453179189       52.6994260636       21.1341027907  TIP3      4869            0.0000000000
     31958      5006  TIP3      OH2            52.9104517494       52.9874038143        3.4069209056  TIP3      4870            0.0000000000
     31959      5006  TIP3      H1             52.7361706008       52.3711495815        4.1457677313  TIP3      4870            0.0000000000
     31960      5006  TIP3      H2             53.8160777619       52.7432152070        3.1541014099  TIP3      4870            0.0000000000
     31961      5007  TIP3      OH2            39.3820310820       48.3604000527       21.2646204066  TIP3      4871            0.0000000000
     31962      5007  TIP3      H1             39.0986076328       47.4463876264       21.1521727068  TIP3      4871            0.0000000000
     31963      5007  TIP3      H2             38.6908585378       48.8039571169       20.7319368627  TIP3      4871            0.0000000000
     31964      5008  TIP3      OH2            43.4688615012       48.9261013575        3.3476140924  TIP3      4872            0.0000000000
     31965      5008  TIP3      H1             44.0113999415       49.0874260797        4.1287898063  TIP3      4872            0.0000000000
     31966      5008  TIP3      H2             44.1502451495       48.6137158739        2.7069828477  TIP3      4872            0.0000000000
     31967      5009  TIP3      OH2            45.7865223319       48.6948859265       20.3502046240  TIP3      4873            0.0000000000
     31968      5009  TIP3      H1             45.4327822384       49.2782458648       19.6390529171  TIP3      4873            0.0000000000
     31969      5009  TIP3      H2             45.4573940784       47.7926741826       20.1115254053  TIP3      4873            0.0000000000
     31970      5010  TIP3      OH2            51.3368336154       48.7730014445       18.0717420465  TIP3      4874            0.0000000000
     31971      5010  TIP3      H1             52.1074016456       49.3822926233       18.0137295813  TIP3      4874            0.0000000000
     31972      5010  TIP3      H2             50.6679214855       49.4298450483       18.3199634700  TIP3      4874            0.0000000000
     31973      5011  TIP3      OH2            40.7690918196       45.4759786630       21.0350979175  TIP3      4875            0.0000000000
     31974      5011  TIP3      H1             40.2622070170       44.8402374779       20.5149541945  TIP3      4875            0.0000000000
     31975      5011  TIP3      H2             41.1499455549       44.9202465903       21.7251472356  TIP3      4875            0.0000000000
     31976      5012  TIP3      OH2            44.7976957200       47.2239132590        6.1612750460  TIP3      4876            0.0000000000
     31977      5012  TIP3      H1             44.0077504852       46.7493762868        6.5029298281  TIP3      4876            0.0000000000
     31978      5012  TIP3      H2             45.0960434089       46.6597528118        5.4243557432  TIP3      4876            0.0000000000
     31979      5013  TIP3      OH2            43.4524390152       45.2055294712       17.2261357091  TIP3      4877            0.0000000000
     31980      5013  TIP3      H1             43.1309713426       46.1264476490       17.1372655180  TIP3      4877            0.0000000000
     31981      5013  TIP3      H2             44.3646399804       45.3275826636       16.8885227551  TIP3      4877            0.0000000000
     31982      5014  TIP3      OH2            45.9029464812       45.5038866017        4.1151107398  TIP3      4878            0.0000000000
     31983      5014  TIP3      H1             46.0761883938       46.1624795689        3.4205975728  TIP3      4878            0.0000000000
     31984      5014  TIP3      H2             46.8397937018       45.3151255771        4.3416136610  TIP3      4878            0.0000000000
     31985      5015  TIP3      OH2            49.4802296612       47.8119736494       21.4454969361  TIP3      4879            0.0000000000
     31986      5015  TIP3      H1             50.3962167607       47.5476706356       21.2718302618  TIP3      4879            0.0000000000
     31987      5015  TIP3      H2             49.1274482638       47.0313564655       21.9231350229  TIP3      4879            0.0000000000
     31988      5016  TIP3      OH2            55.3325707331       47.9998507524        3.1057907469  TIP3      4880            0.0000000000
     31989      5016  TIP3      H1             54.7903199357       48.2372724060        2.3360505544  TIP3      4880            0.0000000000
     31990      5016  TIP3      H2             56.0309042056       48.6776873599        3.0596079409  TIP3      4880            0.0000000000
     31991      5017  TIP3      OH2            45.0149338229       42.7727944516       18.6317838981  TIP3      4881            0.0000000000
     31992      5017  TIP3      H1             44.9284785299       41.9972062882       18.0348904116  TIP3      4881            0.0000000000
     31993      5017  TIP3      H2             44.8180008846       43.5094313774       18.0322761851  TIP3      4881            0.0000000000
     31994      5018  TIP3      OH2            44.6160409498       40.6920633451       16.8626439409  TIP3      4882            0.0000000000
     31995      5018  TIP3      H1             45.1004445081       41.1130382013       16.1139965665  TIP3      4882            0.0000000000
     31996      5018  TIP3      H2             43.7410694526       40.5467749673       16.4344892183  TIP3      4882            0.0000000000
     31997      5019  TIP3      OH2            46.0235120638       46.3978523045       16.6986964330  TIP3      4883            0.0000000000
     31998      5019  TIP3      H1             46.8854041803       46.8082232820       16.5516146980  TIP3      4883            0.0000000000
     31999      5019  TIP3      H2             45.4276625817       47.1044240009       16.3492732604  TIP3      4883            0.0000000000
     32000      5020  TIP3      OH2            50.4787419944       43.9030795465       21.4712919589  TIP3      4884            0.0000000000
     32001      5020  TIP3      H1             50.2995290662       42.9808094567       21.7345193899  TIP3      4884            0.0000000000
     32002      5020  TIP3      H2             51.2289095965       43.8178644133       20.8597653377  TIP3      4884            0.0000000000
     32003      5021  TIP3      OH2            52.1394220740       47.2489868068       20.2031508981  TIP3      4885            0.0000000000
     32004      5021  TIP3      H1             51.8028248422       47.7850100446       19.4473107781  TIP3      4885            0.0000000000
     32005      5021  TIP3      H2             53.0688702635       47.1178249383       19.9105756705  TIP3      4885            0.0000000000
     32006      5022  TIP3      OH2            43.4577933472       42.9947524102       20.8797317352  TIP3      4886            0.0000000000
     32007      5022  TIP3      H1             42.6187916092       42.6403813151       20.5435333312  TIP3      4886            0.0000000000
     32008      5022  TIP3      H2             44.0316619261       42.9032189190       20.0796776052  TIP3      4886            0.0000000000
     32009      5023  TIP3      OH2            45.5733366263       38.2200672067       16.8144937328  TIP3      4887            0.0000000000
     32010      5023  TIP3      H1             45.1853572655       39.1131890094       16.9668018544  TIP3      4887            0.0000000000
     32011      5023  TIP3      H2             44.8098197574       37.6987371554       16.5530252326  TIP3      4887            0.0000000000
     32012      5024  TIP3      OH2            47.0705137331       42.3445893888       20.8927160325  TIP3      4888            0.0000000000
     32013      5024  TIP3      H1             46.9181015823       41.9823594258       21.7805383989  TIP3      4888            0.0000000000
     32014      5024  TIP3      H2             46.2178478055       42.2152555411       20.4466412104  TIP3      4888            0.0000000000
     32015      5025  TIP3      OH2            49.4342300494       41.7410168750       19.7482166052  TIP3      4889            0.0000000000
     32016      5025  TIP3      H1             48.5656794185       41.8995654562       20.1756949160  TIP3      4889            0.0000000000
     32017      5025  TIP3      H2             49.8049576305       41.0479584936       20.3506518777  TIP3      4889            0.0000000000
     32018      5026  TIP3      OH2            50.6275894970       40.0639092429       21.4652486078  TIP3      4890            0.0000000000
     32019      5026  TIP3      H1             50.8197402034       39.1026666417       21.5415659108  TIP3      4890            0.0000000000
     32020      5026  TIP3      H2             50.6251642564       40.3389475176       22.4267862806  TIP3      4890            0.0000000000
     32021      5027  TIP3      OH2            41.0000474250       41.3302606535       21.1823791126  TIP3      4891            0.0000000000
     32022      5027  TIP3      H1             40.7997347381       40.4803805075       20.7335431462  TIP3      4891            0.0000000000
     32023      5027  TIP3      H2             41.1575296388       41.0559875010       22.1075943881  TIP3      4891            0.0000000000
     32024      5028  TIP3      OH2            45.5966255277       37.8668717175       19.5452207760  TIP3      4892            0.0000000000
     32025      5028  TIP3      H1             46.3330918871       37.2489233207       19.7126060797  TIP3      4892            0.0000000000
     32026      5028  TIP3      H2             45.4976146494       37.7556760526       18.5782653574  TIP3      4892            0.0000000000
     32027      5029  TIP3      OH2            45.7337695766       39.1787554509       22.1081471685  TIP3      4893            0.0000000000
     32028      5029  TIP3      H1             45.8258775019       38.9663649270       21.1578557933  TIP3      4893            0.0000000000
     32029      5029  TIP3      H2             45.1409467378       39.9572801891       22.1431327692  TIP3      4893            0.0000000000
     32030      5030  TIP3      OH2            45.4676008676       56.2601939261        5.0071032809  TIP3      4894            0.0000000000
     32031      5030  TIP3      H1             46.3141557715       56.6216347360        5.3029031913  TIP3      4894            0.0000000000
     32032      5030  TIP3      H2             45.5775888322       56.2649972807        4.0377019580  TIP3      4894            0.0000000000
     32033      5031  TIP3      OH2            39.1638347230       50.5334491427        4.2919322055  TIP3      4895            0.0000000000
     32034      5031  TIP3      H1             40.0745233679       50.8476247023        4.4971335297  TIP3      4895            0.0000000000
     32035      5031  TIP3      H2             39.2657258441       50.3997598703        3.3269528170  TIP3      4895            0.0000000000
     32036      5032  TIP3      OH2            37.9135032796       56.0913182317        9.5575796536  TIP3      4896            0.0000000000
     32037      5032  TIP3      H1             37.2072049229       55.4914473532        9.2837217677  TIP3      4896            0.0000000000
     32038      5032  TIP3      H2             38.4038738247       55.5029580791       10.1762550898  TIP3      4896            0.0000000000
     32039      5033  TIP3      OH2            38.7565247114       54.3930458501       11.4907461645  TIP3      4897            0.0000000000
     32040      5033  TIP3      H1             37.9234040162       54.1724801379       11.9408639639  TIP3      4897            0.0000000000
     32041      5033  TIP3      H2             39.3455216579       54.5075916568       12.2684812688  TIP3      4897            0.0000000000
     32042      5034  TIP3      OH2            56.1909958186       55.1779609713       14.0191492050  TIP3      4898            0.0000000000
     32043      5034  TIP3      H1             56.4969894712       54.7308729404       14.8217866966  TIP3      4898            0.0000000000
     32044      5034  TIP3      H2             56.3434707106       56.1047591097       14.2462814846  TIP3      4898            0.0000000000
     32045      5035  TIP3      OH2            55.7871109641       54.2338043624       17.1462183172  TIP3      4899            0.0000000000
     32046      5035  TIP3      H1             55.3499342984       53.4637594843       16.7225143774  TIP3      4899            0.0000000000
     32047      5035  TIP3      H2             56.1366714462       53.8396926085       17.9745424455  TIP3      4899            0.0000000000
     32048      5036  TIP3      OH2            54.7419540955       50.6798494372       22.1850602857  TIP3      4900            0.0000000000
     32049      5036  TIP3      H1             53.9315571112       50.5477272118       22.7057451644  TIP3      4900            0.0000000000
     32050      5036  TIP3      H2             55.4339803054       50.7006614851       22.9014150105  TIP3      4900            0.0000000000
     32051      5037  TIP3      OH2            55.2923648441       48.8163875209        7.1914606194  TIP3      4901            0.0000000000
     32052      5037  TIP3      H1             56.1835858530       49.1917617273        7.3929050106  TIP3      4901            0.0000000000
     32053      5037  TIP3      H2             55.2021806631       48.1754365730        7.9235680426  TIP3      4901            0.0000000000
     32054      5038  TIP3      OH2            55.8152870255       46.5094774066        9.1004034549  TIP3      4902            0.0000000000
     32055      5038  TIP3      H1             55.1443453889       46.0186615297        9.6436889785  TIP3      4902            0.0000000000
     32056      5038  TIP3      H2             56.3413180107       46.9472441525        9.7918409759  TIP3      4902            0.0000000000
     32057      5039  TIP3      OH2            55.3595287729       49.2497712276       13.6455215021  TIP3      4903            0.0000000000
     32058      5039  TIP3      H1             56.1281351330       48.6557405353       13.7855478747  TIP3      4903            0.0000000000
     32059      5039  TIP3      H2             55.7943850300       50.1229646822       13.5647156316  TIP3      4903            0.0000000000
     32060      5040  TIP3      OH2            54.1941127330       52.2617599770       16.2938607847  TIP3      4904            0.0000000000
     32061      5040  TIP3      H1             53.5006193482       52.8763566933       16.5832989903  TIP3      4904            0.0000000000
     32062      5040  TIP3      H2             53.8642385547       52.0143927796       15.4002321862  TIP3      4904            0.0000000000
     32063      5041  TIP3      OH2            56.2576851775       46.7011302485        5.6288917497  TIP3      4905            0.0000000000
     32064      5041  TIP3      H1             55.8356738651       46.9323115158        4.7825471730  TIP3      4905            0.0000000000
     32065      5041  TIP3      H2             55.9293590001       47.4186706934        6.2097602452  TIP3      4905            0.0000000000
     32066      5042  TIP3      OH2            54.7847177309       43.2802256813        3.8834668947  TIP3      4906            0.0000000000
     32067      5042  TIP3      H1             54.7084502750       43.5123769190        2.9393529697  TIP3      4906            0.0000000000
     32068      5042  TIP3      H2             54.2046907193       42.5139690501        3.9878179616  TIP3      4906            0.0000000000
     32069      5043  TIP3      OH2            53.6831368726       45.0768729244       10.0002012091  TIP3      4907            0.0000000000
     32070      5043  TIP3      H1             53.3821835804       44.2569188416        9.5600406912  TIP3      4907            0.0000000000
     32071      5043  TIP3      H2             53.5629764983       44.8848995666       10.9521785253  TIP3      4907            0.0000000000
     32072      5044  TIP3      OH2            38.8717104117       47.2992882320       13.8814597452  TIP3      4908            0.0000000000
     32073      5044  TIP3      H1             38.7843493784       46.8988131690       12.9869073133  TIP3      4908            0.0000000000
     32074      5044  TIP3      H2             39.8139954411       47.0930935909       14.0962738652  TIP3      4908            0.0000000000
     32075      5045  TIP3      OH2            54.7245523827       47.1019074797       19.3046207556  TIP3      4909            0.0000000000
     32076      5045  TIP3      H1             55.2165260076       46.3080777649       19.6380406450  TIP3      4909            0.0000000000
     32077      5045  TIP3      H2             55.4354028172       47.7359796589       19.0814988313  TIP3      4909            0.0000000000
     32078      5046  TIP3      OH2            55.9446975440       45.0085900962       20.2452299715  TIP3      4910            0.0000000000
     32079      5046  TIP3      H1             55.5770251180       44.3964403020       20.9043379386  TIP3      4910            0.0000000000
     32080      5046  TIP3      H2             56.7754805964       44.5368837406       20.0318769250  TIP3      4910            0.0000000000
     32081      5047  TIP3      OH2            53.2145147809       43.1134266502        8.2433716585  TIP3      4911            0.0000000000
     32082      5047  TIP3      H1             53.3312762427       42.1418459487        8.3677108488  TIP3      4911            0.0000000000
     32083      5047  TIP3      H2             54.1533359199       43.3548170582        8.2237475931  TIP3      4911            0.0000000000
     32084      5048  TIP3      OH2            54.5701158438       43.4833073439       14.0761320270  TIP3      4912            0.0000000000
     32085      5048  TIP3      H1             55.5489494091       43.5137467322       14.0922738742  TIP3      4912            0.0000000000
     32086      5048  TIP3      H2             54.4109081780       43.7793144789       14.9979673101  TIP3      4912            0.0000000000
     32087      5049  TIP3      OH2            54.4809379078       44.1704079031       16.7171901729  TIP3      4913            0.0000000000
     32088      5049  TIP3      H1             53.6073248988       44.3361897988       17.1203074413  TIP3      4913            0.0000000000
     32089      5049  TIP3      H2             54.8545590717       45.0788786737       16.6745128435  TIP3      4913            0.0000000000
     32090      5050  TIP3      OH2            38.9659976449       42.4878791196       20.0465350490  TIP3      4914            0.0000000000
     32091      5050  TIP3      H1             39.7392120797       42.0147299439       20.4244546196  TIP3      4914            0.0000000000
     32092      5050  TIP3      H2             38.2231026714       41.8816741473       20.2927136373  TIP3      4914            0.0000000000
     32093      5051  TIP3      OH2            57.0869214175       38.1597149102       21.8067442095  TIP3      4915            0.0000000000
     32094      5051  TIP3      H1             57.0604814120       37.3831355299       21.2205306204  TIP3      4915            0.0000000000
     32095      5051  TIP3      H2             57.1177262210       38.8867572079       21.1578248508  TIP3      4915            0.0000000000
     32096      5052  TIP3      OH2            53.9061423898       40.5370458501        8.7277825845  TIP3      4916            0.0000000000
     32097      5052  TIP3      H1             54.2789529505       39.9687728200        9.4237281807  TIP3      4916            0.0000000000
     32098      5052  TIP3      H2             53.5294475007       39.8805866614        8.1044046175  TIP3      4916            0.0000000000
     32099      5053  TIP3      OH2            39.9807169688       40.7692513141       13.4140016364  TIP3      4917            0.0000000000
     32100      5053  TIP3      H1             40.3172544999       39.8543932565       13.2612091598  TIP3      4917            0.0000000000
     32101      5053  TIP3      H2             40.7697032684       41.3301017054       13.2874114265  TIP3      4917            0.0000000000
     32102      5054  TIP3      OH2            38.3514536483       43.8087419191       14.2341351035  TIP3      4918            0.0000000000
     32103      5054  TIP3      H1             38.7636617452       43.5443800488       13.3883466917  TIP3      4918            0.0000000000
     32104      5054  TIP3      H2             39.1293339307       44.0038881902       14.7670992644  TIP3      4918            0.0000000000
     32105      5055  TIP3      OH2            56.3797695233       40.2552950798       20.1074336857  TIP3      4919            0.0000000000
     32106      5055  TIP3      H1             55.6051074310       40.3827888867       20.6943210182  TIP3      4919            0.0000000000
     32107      5055  TIP3      H2             55.9272664403       39.7699486001       19.3968141166  TIP3      4919            0.0000000000
     32108      5056  TIP3      OH2            55.7409607212       40.4902942419        4.9805761190  TIP3      4920            0.0000000000
     32109      5056  TIP3      H1             55.4027834398       39.9097160641        4.2797788097  TIP3      4920            0.0000000000
     32110      5056  TIP3      H2             56.4329693185       40.9764719626        4.5131059368  TIP3      4920            0.0000000000
     32111      5057  TIP3      OH2            38.2326568864       39.6292876206        7.7246426720  TIP3      4921            0.0000000000
     32112      5057  TIP3      H1             37.2850416426       39.5772665537        7.5787746090  TIP3      4921            0.0000000000
     32113      5057  TIP3      H2             38.5065510242       40.2462248622        7.0108711454  TIP3      4921            0.0000000000
     32114      5058  TIP3      OH2            53.3031904955       55.1586318879       10.1022091886  TIP3      4922            0.0000000000
     32115      5058  TIP3      H1             54.0596143805       55.2252676631        9.4869806051  TIP3      4922            0.0000000000
     32116      5058  TIP3      H2             53.4491727512       55.8798214581       10.7428517073  TIP3      4922            0.0000000000
     32117      5059  TIP3      OH2            38.0507533049       38.8773449368       15.9462068164  TIP3      4923            0.0000000000
     32118      5059  TIP3      H1             37.4794061154       38.5906480424       16.6852959209  TIP3      4923            0.0000000000
     32119      5059  TIP3      H2             37.5192050989       39.5263029272       15.4439620808  TIP3      4923            0.0000000000
     32120      5060  TIP3      OH2            40.5841928994       51.8143847425       20.7636977512  TIP3      4924            0.0000000000
     32121      5060  TIP3      H1             40.0722334716       51.4013503797       20.0494030743  TIP3      4924            0.0000000000
     32122      5060  TIP3      H2             40.2804794668       52.7293196552       20.7248144379  TIP3      4924            0.0000000000
     32123      5061  TIP3      OH2            43.4613754738       53.6068680898       17.1834932814  TIP3      4925            0.0000000000
     32124      5061  TIP3      H1             43.2307708882       54.4561750009       16.7391339265  TIP3      4925            0.0000000000
     32125      5061  TIP3      H2             44.3926149336       53.5161514765       16.8805755579  TIP3      4925            0.0000000000
     32126      5062  TIP3      OH2            47.3241617614       54.4125274252       19.3775760444  TIP3      4926            0.0000000000
     32127      5062  TIP3      H1             47.4235572287       54.2287271206       20.3390638794  TIP3      4926            0.0000000000
     32128      5062  TIP3      H2             48.2123794306       54.8166561534       19.2158337732  TIP3      4926            0.0000000000
     32129      5063  TIP3      OH2            49.5970531716       55.7493284276       19.0099053569  TIP3      4927            0.0000000000
     32130      5063  TIP3      H1             50.3209058063       55.7975966777       18.3634721044  TIP3      4927            0.0000000000
     32131      5063  TIP3      H2             49.8416320594       56.4220325660       19.6681010842  TIP3      4927            0.0000000000
     32132      5064  TIP3      OH2            55.1641601720       37.9393937008       18.1769973936  TIP3      4928            0.0000000000
     32133      5064  TIP3      H1             54.5466236445       38.3653775004       17.5667680953  TIP3      4928            0.0000000000
     32134      5064  TIP3      H2             55.3068904405       37.0780271677       17.7180503674  TIP3      4928            0.0000000000
     32135      5065  TIP3      OH2            40.4495506621       56.4982517011       16.7789371475  TIP3      4929            0.0000000000
     32136      5065  TIP3      H1             39.7311376617       57.0626297760       16.4265255735  TIP3      4929            0.0000000000
     32137      5065  TIP3      H2             40.5238540070       56.8717103095       17.6794895987  TIP3      4929            0.0000000000
     32138      5066  TIP3      OH2            42.7852281155       55.7995798988       15.7095363986  TIP3      4930            0.0000000000
     32139      5066  TIP3      H1             41.8648658138       56.0330473853       15.9802101107  TIP3      4930            0.0000000000
     32140      5066  TIP3      H2             42.9185675494       56.3350183758       14.9063901741  TIP3      4930            0.0000000000
     32141      5067  TIP3      OH2            47.8578770991       55.5953747393       14.7596216425  TIP3      4931            0.0000000000
     32142      5067  TIP3      H1             47.1260914920       56.0698090344       14.3277475808  TIP3      4931            0.0000000000
     32143      5067  TIP3      H2             47.9788115409       56.1640350360       15.5503760911  TIP3      4931            0.0000000000
     32144      5068  TIP3      OH2            49.8630009071       54.3380798446       16.1973854851  TIP3      4932            0.0000000000
     32145      5068  TIP3      H1             49.2252688340       54.6487411673       15.5160666440  TIP3      4932            0.0000000000
     32146      5068  TIP3      H2             50.5869626644       54.9808735872       16.0313488221  TIP3      4932            0.0000000000
     32147      5069  TIP3      OH2            52.1198101139       55.9007887163       15.8814997768  TIP3      4933            0.0000000000
     32148      5069  TIP3      H1             52.6887227317       56.6735322515       16.0622022710  TIP3      4933            0.0000000000
     32149      5069  TIP3      H2             52.5406118925       55.5928640377       15.0499073949  TIP3      4933            0.0000000000
     32150      5070  TIP3      OH2            40.2484083956       54.7922467670       13.7606496220  TIP3      4934            0.0000000000
     32151      5070  TIP3      H1             40.0685793653       54.1106685271       14.4490760797  TIP3      4934            0.0000000000
     32152      5070  TIP3      H2             41.2158788695       54.6693204988       13.6475215277  TIP3      4934            0.0000000000
     32153      5071  TIP3      OH2            42.6353468928       54.2160868260       12.2438253536  TIP3      4935            0.0000000000
     32154      5071  TIP3      H1             42.1580191164       53.3629894706       12.2895331454  TIP3      4935            0.0000000000
     32155      5071  TIP3      H2             43.4081601724       53.9788434156       12.8163721003  TIP3      4935            0.0000000000
     32156      5072  TIP3      OH2            44.4985659077       53.6275333342       14.0185347138  TIP3      4936            0.0000000000
     32157      5072  TIP3      H1             44.9685921337       52.8018423633       13.7844100831  TIP3      4936            0.0000000000
     32158      5072  TIP3      H2             44.8725854036       53.8227782877       14.8999502724  TIP3      4936            0.0000000000
     32159      5073  TIP3      OH2            47.6122741875       39.4729190650       12.7981009238  TIP3      4937            0.0000000000
     32160      5073  TIP3      H1             46.9038952147       38.7829238877       12.8891332636  TIP3      4937            0.0000000000
     32161      5073  TIP3      H2             48.4141257764       38.9459768440       12.8129318773  TIP3      4937            0.0000000000
     32162      5074  TIP3      OH2            53.6782164602       37.8019029654       12.3643053167  TIP3      4938            0.0000000000
     32163      5074  TIP3      H1             54.3143539391       38.3807950809       11.8780511262  TIP3      4938            0.0000000000
     32164      5074  TIP3      H2             52.8038675836       38.0560354155       11.9863323472  TIP3      4938            0.0000000000
     32165      5075  TIP3      OH2            55.3700632283       38.9348563988       10.5928154573  TIP3      4939            0.0000000000
     32166      5075  TIP3      H1             55.9187092933       38.2646261701       10.1191842260  TIP3      4939            0.0000000000
     32167      5075  TIP3      H2             56.0095489504       39.6872208532       10.6709505152  TIP3      4939            0.0000000000
     32168      5076  TIP3      OH2            40.5393351536       37.7510684720       10.4095098115  TIP3      4940            0.0000000000
     32169      5076  TIP3      H1             39.7792253413       37.7361573077        9.7925429183  TIP3      4940            0.0000000000
     32170      5076  TIP3      H2             41.0415791169       36.9626268644       10.0993753726  TIP3      4940            0.0000000000
     32171      5077  TIP3      OH2            40.1462515805       38.1260730521        6.4068137688  TIP3      4941            0.0000000000
     32172      5077  TIP3      H1             40.3614916453       38.6408042638        5.5991862585  TIP3      4941            0.0000000000
     32173      5077  TIP3      H2             39.4096364022       38.6477463704        6.7931205146  TIP3      4941            0.0000000000
     32174      5078  TIP3      OH2            45.1547407552       37.6833550540       10.2277675979  TIP3      4942            0.0000000000
     32175      5078  TIP3      H1             45.8921121285       38.0372051198        9.7095349195  TIP3      4942            0.0000000000
     32176      5078  TIP3      H2             45.4513833083       37.8751996806       11.1313278563  TIP3      4942            0.0000000000
     32177      5079  TIP3      OH2            51.0716573342       38.2540865058       11.0332467710  TIP3      4943            0.0000000000
     32178      5079  TIP3      H1             50.5824600558       38.5214516574       10.2436983976  TIP3      4943            0.0000000000
     32179      5079  TIP3      H2             50.5199500661       37.5102219764       11.3801724463  TIP3      4943            0.0000000000
     32180      5080  TIP3      OH2            52.3383246157       38.7003157553        7.2928643194  TIP3      4944            0.0000000000
     32181      5080  TIP3      H1             51.4678744877       39.1272278594        7.2302826548  TIP3      4944            0.0000000000
     32182      5080  TIP3      H2             52.0518810209       37.8280015126        7.6357485351  TIP3      4944            0.0000000000
     32183      5081  TIP3      OH2            39.3594985186       54.0852804080        7.1713622124  TIP3      4945            0.0000000000
     32184      5081  TIP3      H1             38.5370470955       54.0873295245        6.6473022887  TIP3      4945            0.0000000000
     32185      5081  TIP3      H2             39.6886013493       54.9638278153        6.9063574349  TIP3      4945            0.0000000000
     32186      5082  TIP3      OH2            41.3316658347       39.3568118224        4.3226438854  TIP3      4946            0.0000000000
     32187      5082  TIP3      H1             42.0590582286       38.7308231551        4.4747416353  TIP3      4946            0.0000000000
     32188      5082  TIP3      H2             41.7606389090       40.1965780499        4.5170102166  TIP3      4946            0.0000000000
     32189      5083  TIP3      OH2            46.6298661913       40.4530862270        6.9155933647  TIP3      4947            0.0000000000
     32190      5083  TIP3      H1             47.1229588688       39.8527022051        7.4910133734  TIP3      4947            0.0000000000
     32191      5083  TIP3      H2             46.7435823753       41.2775921353        7.4368249696  TIP3      4947            0.0000000000
     32192      5084  TIP3      OH2            48.1175813559       55.4528312603        5.0278869345  TIP3      4948            0.0000000000
     32193      5084  TIP3      H1             49.0958146590       55.3959664575        5.0187371845  TIP3      4948            0.0000000000
     32194      5084  TIP3      H2             47.9159656780       54.7392868884        4.3949693121  TIP3      4948            0.0000000000
     32195      5085  TIP3      OH2            55.1224744655       54.8289010412        8.0180625442  TIP3      4949            0.0000000000
     32196      5085  TIP3      H1             54.6679948486       54.1478562025        7.4618151419  TIP3      4949            0.0000000000
     32197      5085  TIP3      H2             55.0586019210       55.5989409224        7.4161293536  TIP3      4949            0.0000000000
     32198      5086  TIP3      OH2            40.3234952795       39.1515323499       19.5666890112  TIP3      4950            0.0000000000
     32199      5086  TIP3      H1             39.6857962169       38.4023244979       19.5939017936  TIP3      4950            0.0000000000
     32200      5086  TIP3      H2             41.1242383595       38.7116030497       19.9018982272  TIP3      4950            0.0000000000
     32201      5087  TIP3      OH2            42.9757272928       38.1425257530       22.0262890602  TIP3      4951            0.0000000000
     32202      5087  TIP3      H1             43.8768287875       38.4010085938       21.7652984571  TIP3      4951            0.0000000000
     32203      5087  TIP3      H2             43.2051272312       37.2899799305       22.4292510468  TIP3      4951            0.0000000000
     32204      5088  TIP3      OH2            41.5191411868       56.0494268081        4.1047054173  TIP3      4952            0.0000000000
     32205      5088  TIP3      H1             40.9741209474       56.4299336520        4.8234986375  TIP3      4952            0.0000000000
     32206      5088  TIP3      H2             41.4596539055       55.1073715952        4.3276880847  TIP3      4952            0.0000000000
     32207      5089  TIP3      OH2            51.2453090052       37.4924314434       21.5261864506  TIP3      4953            0.0000000000
     32208      5089  TIP3      H1             51.4435213963       37.5605956998       22.4893123047  TIP3      4953            0.0000000000
     32209      5089  TIP3      H2             52.1131169791       37.1752707676       21.2038594336  TIP3      4953            0.0000000000
     32210      5090  TIP3      OH2            54.0395116722       53.8209770945       19.8640759915  TIP3      4954            0.0000000000
     32211      5090  TIP3      H1             53.6027119651       53.6646842064       18.9936503796  TIP3      4954            0.0000000000
     32212      5090  TIP3      H2             53.8603284973       54.7718859159       19.9765547958  TIP3      4954            0.0000000000
     32213      5091  TIP3      OH2            59.6864343737       46.2418535451       15.5405291907  TIP3      4955            0.0000000000
     32214      5091  TIP3      H1             59.6136186888       45.3457354338       15.9170631196  TIP3      4955            0.0000000000
     32215      5091  TIP3      H2             60.2987023545       46.6736038258       16.1688260291  TIP3      4955            0.0000000000
     32216      5092  TIP3      OH2            60.7432244599       51.0440744483       13.2199921933  TIP3      4956            0.0000000000
     32217      5092  TIP3      H1             60.4845741020       50.1086167297       13.0828279074  TIP3      4956            0.0000000000
     32218      5092  TIP3      H2             61.7114326166       50.9622429353       13.0837843767  TIP3      4956            0.0000000000
     32219      5093  TIP3      OH2            57.5494201953       44.3168693228        9.0815451128  TIP3      4957            0.0000000000
     32220      5093  TIP3      H1             57.0406731140       45.1200199492        9.2899996402  TIP3      4957            0.0000000000
     32221      5093  TIP3      H2             57.0568875876       43.9961118054        8.3010620207  TIP3      4957            0.0000000000
     32222      5094  TIP3      OH2            57.4234315585       46.2439885719       11.6101366107  TIP3      4958            0.0000000000
     32223      5094  TIP3      H1             57.8228766725       45.3484253902       11.6993897433  TIP3      4958            0.0000000000
     32224      5094  TIP3      H2             58.2148973263       46.8048133276       11.5254816054  TIP3      4958            0.0000000000
     32225      5095  TIP3      OH2            65.8970844561       49.4195169035       14.8330409901  TIP3      4959            0.0000000000
     32226      5095  TIP3      H1             66.5520675947       48.7305027064       14.5687743177  TIP3      4959            0.0000000000
     32227      5095  TIP3      H2             66.2644651766       50.2364445820       14.4523267724  TIP3      4959            0.0000000000
     32228      5096  TIP3      OH2            62.0263061755       41.4746416513       11.2525410680  TIP3      4960            0.0000000000
     32229      5096  TIP3      H1             62.1369472695       42.2523074987       10.6599296628  TIP3      4960            0.0000000000
     32230      5096  TIP3      H2             61.6635922764       40.8155851445       10.6159436899  TIP3      4960            0.0000000000
     32231      5097  TIP3      OH2            58.9974934949       43.8878836516       12.3750082478  TIP3      4961            0.0000000000
     32232      5097  TIP3      H1             59.6441505082       43.5666898667       13.0252293126  TIP3      4961            0.0000000000
     32233      5097  TIP3      H2             59.3977415359       43.5791644817       11.5359949235  TIP3      4961            0.0000000000
     32234      5098  TIP3      OH2            62.8970108534       45.6244398795       11.4675363568  TIP3      4962            0.0000000000
     32235      5098  TIP3      H1             63.7360307249       45.2102080033       11.7816509642  TIP3      4962            0.0000000000
     32236      5098  TIP3      H2             62.6027788971       44.9075494673       10.8585280255  TIP3      4962            0.0000000000
     32237      5099  TIP3      OH2            60.9878208108       40.3864220884       15.6836995557  TIP3      4963            0.0000000000
     32238      5099  TIP3      H1             60.7322584194       40.9390444498       14.9142147371  TIP3      4963            0.0000000000
     32239      5099  TIP3      H2             60.3470493544       40.6994496200       16.3473475614  TIP3      4963            0.0000000000
     32240      5100  TIP3      OH2            63.4783796931       47.9791293170       15.5263074266  TIP3      4964            0.0000000000
     32241      5100  TIP3      H1             62.7829137303       48.6092454279       15.8384889526  TIP3      4964            0.0000000000
     32242      5100  TIP3      H2             64.1979693037       48.6085019354       15.2967495884  TIP3      4964            0.0000000000
     32243      5101  TIP3      OH2            61.1114312128       42.4503602645       13.7158582222  TIP3      4965            0.0000000000
     32244      5101  TIP3      H1             61.8547740286       42.8495602200       14.2176219596  TIP3      4965            0.0000000000
     32245      5101  TIP3      H2             61.5427735711       42.1621392299       12.8743227882  TIP3      4965            0.0000000000
     32246      5102  TIP3      OH2            61.9672210618       50.2009633403       16.2615025871  TIP3      4966            0.0000000000
     32247      5102  TIP3      H1             61.7846378330       50.6674615176       15.4289057540  TIP3      4966            0.0000000000
     32248      5102  TIP3      H2             61.1284980715       50.3684392063       16.7494851177  TIP3      4966            0.0000000000
     32249      5103  TIP3      OH2            57.7933107301       49.7278405785        7.4131144975  TIP3      4967            0.0000000000
     32250      5103  TIP3      H1             57.7805122420       50.1761760895        6.5345824058  TIP3      4967            0.0000000000
     32251      5103  TIP3      H2             57.9907737317       50.5080356337        7.9975937836  TIP3      4967            0.0000000000
     32252      5104  TIP3      OH2            64.8315093516       38.0192833545       13.1047723900  TIP3      4968            0.0000000000
     32253      5104  TIP3      H1             65.2032426762       37.7796625558       13.9608836845  TIP3      4968            0.0000000000
     32254      5104  TIP3      H2             63.9597397698       38.4061717608       13.3601098081  TIP3      4968            0.0000000000
     32255      5105  TIP3      OH2            62.0641117127       48.0292806957       10.4294078020  TIP3      4969            0.0000000000
     32256      5105  TIP3      H1             61.8702225315       47.7659732224        9.5133945928  TIP3      4969            0.0000000000
     32257      5105  TIP3      H2             62.3192398715       47.1615919508       10.8186217622  TIP3      4969            0.0000000000
     32258      5106  TIP3      OH2            63.5148827352       50.4500129927       13.0952132335  TIP3      4970            0.0000000000
     32259      5106  TIP3      H1             63.6624053243       50.3112372237       12.1456774156  TIP3      4970            0.0000000000
     32260      5106  TIP3      H2             64.3495154798       50.1491201934       13.4911123607  TIP3      4970            0.0000000000
     32261      5107  TIP3      OH2            62.4756993327       45.9875431086       14.1285239826  TIP3      4971            0.0000000000
     32262      5107  TIP3      H1             62.6786689149       46.0719292559       13.1737042185  TIP3      4971            0.0000000000
     32263      5107  TIP3      H2             62.8928176296       46.7893641778       14.5153244956  TIP3      4971            0.0000000000
     32264      5108  TIP3      OH2            63.7948376855       50.1656612749       18.3109755448  TIP3      4972            0.0000000000
     32265      5108  TIP3      H1             63.4209195893       50.9602390076       18.7588130723  TIP3      4972            0.0000000000
     32266      5108  TIP3      H2             63.2147030260       50.1432046311       17.5162945825  TIP3      4972            0.0000000000
     32267      5109  TIP3      OH2            60.6594446924       47.2194665286       17.8536999731  TIP3      4973            0.0000000000
     32268      5109  TIP3      H1             60.8159322831       47.7455338927       18.6493067082  TIP3      4973            0.0000000000
     32269      5109  TIP3      H2             59.8257910887       46.7665473259       18.0974403295  TIP3      4973            0.0000000000
     32270      5110  TIP3      OH2            62.4838900175       52.1835193447       19.6189605536  TIP3      4974            0.0000000000
     32271      5110  TIP3      H1             62.2832891639       52.6131774784       18.7567353781  TIP3      4974            0.0000000000
     32272      5110  TIP3      H2             61.5980020659       52.1535152392       20.0448304570  TIP3      4974            0.0000000000
     32273      5111  TIP3      OH2            61.4179971185       46.3934327819        7.7819337758  TIP3      4975            0.0000000000
     32274      5111  TIP3      H1             60.9586156406       47.2219013637        7.4846615935  TIP3      4975            0.0000000000
     32275      5111  TIP3      H2             60.7072771637       45.7415801764        7.7943556583  TIP3      4975            0.0000000000
     32276      5112  TIP3      OH2            57.6680325406       49.0041244300       16.9319513750  TIP3      4976            0.0000000000
     32277      5112  TIP3      H1             57.2765090716       48.9638880870       16.0500069610  TIP3      4976            0.0000000000
     32278      5112  TIP3      H2             58.0914594626       48.1286546407       16.9625518161  TIP3      4976            0.0000000000
     32279      5113  TIP3      OH2            57.6801239654       51.7018215149       13.7238806532  TIP3      4977            0.0000000000
     32280      5113  TIP3      H1             58.4691816123       51.3099461786       13.3228201185  TIP3      4977            0.0000000000
     32281      5113  TIP3      H2             58.0597700178       52.2249262970       14.4497765077  TIP3      4977            0.0000000000
     32282      5114  TIP3      OH2            60.5064036056       54.4582055264        9.9139818087  TIP3      4978            0.0000000000
     32283      5114  TIP3      H1             60.9197926117       54.3040261991       10.8037135783  TIP3      4978            0.0000000000
     32284      5114  TIP3      H2             59.6111985275       54.1243014539       10.0910873700  TIP3      4978            0.0000000000
     32285      5115  TIP3      OH2            59.6245853356       50.6091829620       17.6605047205  TIP3      4979            0.0000000000
     32286      5115  TIP3      H1             59.8370877033       50.0835040775       18.4623672701  TIP3      4979            0.0000000000
     32287      5115  TIP3      H2             58.8053581744       50.1366933217       17.3854360124  TIP3      4979            0.0000000000
     32288      5116  TIP3      OH2            62.4775686229       38.9738665114       13.9862405266  TIP3      4980            0.0000000000
     32289      5116  TIP3      H1             61.6230059480       38.8959524887       13.5103580150  TIP3      4980            0.0000000000
     32290      5116  TIP3      H2             62.1653652201       39.3812300644       14.8170600760  TIP3      4980            0.0000000000
     32291      5117  TIP3      OH2            62.7701892783       43.7254549691       15.5956010271  TIP3      4981            0.0000000000
     32292      5117  TIP3      H1             61.8344215062       43.6492665324       15.8987297127  TIP3      4981            0.0000000000
     32293      5117  TIP3      H2             62.6807772860       44.5643678055       15.0769726505  TIP3      4981            0.0000000000
     32294      5118  TIP3      OH2            62.3055116654       43.6632379307        9.6368089958  TIP3      4982            0.0000000000
     32295      5118  TIP3      H1             61.3300027420       43.6557901714        9.5256016030  TIP3      4982            0.0000000000
     32296      5118  TIP3      H2             62.6100891377       43.5321581201        8.7081335384  TIP3      4982            0.0000000000
     32297      5119  TIP3      OH2            60.2342002372       43.6496020925       16.5495687908  TIP3      4983            0.0000000000
     32298      5119  TIP3      H1             60.2121002871       44.1843343491       17.3616895650  TIP3      4983            0.0000000000
     32299      5119  TIP3      H2             59.6955409342       42.8747942313       16.8144038721  TIP3      4983            0.0000000000
     32300      5120  TIP3      OH2            63.7283545908       41.2685166754        4.0879430452  TIP3      4984            0.0000000000
     32301      5120  TIP3      H1             63.1559096555       40.9290391653        4.8096751100  TIP3      4984            0.0000000000
     32302      5120  TIP3      H2             63.5186911119       42.2277647721        4.1250157775  TIP3      4984            0.0000000000
     32303      5121  TIP3      OH2            57.1285377693       40.9083601039       10.9071114652  TIP3      4985            0.0000000000
     32304      5121  TIP3      H1             57.9884029957       40.8531086529       11.3500457415  TIP3      4985            0.0000000000
     32305      5121  TIP3      H2             57.3512975783       41.1816968721       10.0022571061  TIP3      4985            0.0000000000
     32306      5122  TIP3      OH2            58.3144895284       41.8297394526        6.2973530979  TIP3      4986            0.0000000000
     32307      5122  TIP3      H1             58.8289421898       42.2570212267        5.5819670626  TIP3      4986            0.0000000000
     32308      5122  TIP3      H2             57.6409671177       42.5068860633        6.4950078632  TIP3      4986            0.0000000000
     32309      5123  TIP3      OH2            64.7610669815       41.3997986178       11.2317430386  TIP3      4987            0.0000000000
     32310      5123  TIP3      H1             63.8141244700       41.4012733536       11.4794813612  TIP3      4987            0.0000000000
     32311      5123  TIP3      H2             65.1400264767       41.9706588059       11.9194648363  TIP3      4987            0.0000000000
     32312      5124  TIP3      OH2            59.7072022483       42.9884935983        9.7277718567  TIP3      4988            0.0000000000
     32313      5124  TIP3      H1             58.8672146284       43.4482220497        9.4564865482  TIP3      4988            0.0000000000
     32314      5124  TIP3      H2             59.7798039701       42.2622004066        9.0880037621  TIP3      4988            0.0000000000
     32315      5125  TIP3      OH2            63.0640138705       43.1137097850        7.1985569960  TIP3      4989            0.0000000000
     32316      5125  TIP3      H1             63.8405368333       42.5379141823        7.3351988795  TIP3      4989            0.0000000000
     32317      5125  TIP3      H2             63.1156553924       43.3752322642        6.2567225401  TIP3      4989            0.0000000000
     32318      5126  TIP3      OH2            62.7282632157       43.7046082933        4.5930649589  TIP3      4990            0.0000000000
     32319      5126  TIP3      H1             61.8498881005       43.5770846166        4.2097613340  TIP3      4990            0.0000000000
     32320      5126  TIP3      H2             62.8542044353       44.6521361548        4.4182525448  TIP3      4990            0.0000000000
     32321      5127  TIP3      OH2            60.0477618645       49.2213402850       20.1147756116  TIP3      4991            0.0000000000
     32322      5127  TIP3      H1             60.7659217969       49.3540138305       20.7682387210  TIP3      4991            0.0000000000
     32323      5127  TIP3      H2             59.2842231182       48.9562296820       20.6717697131  TIP3      4991            0.0000000000
     32324      5128  TIP3      OH2            65.0702103984       44.0799511766       12.3673418075  TIP3      4992            0.0000000000
     32325      5128  TIP3      H1             65.8195744624       43.9913529521       11.7636917763  TIP3      4992            0.0000000000
     32326      5128  TIP3      H2             65.5753080799       44.1958750208       13.2018952628  TIP3      4992            0.0000000000
     32327      5129  TIP3      OH2            61.1752078471       39.7687573805        9.3113113474  TIP3      4993            0.0000000000
     32328      5129  TIP3      H1             60.4083902820       39.2631623773        9.6597799018  TIP3      4993            0.0000000000
     32329      5129  TIP3      H2             61.6884309918       39.0855640716        8.8608040319  TIP3      4993            0.0000000000
     32330      5130  TIP3      OH2            64.9193870239       42.1408262271       15.5637110886  TIP3      4994            0.0000000000
     32331      5130  TIP3      H1             64.2321550418       42.8216043188       15.7149757374  TIP3      4994            0.0000000000
     32332      5130  TIP3      H2             65.5927107455       42.7137373331       15.1446290512  TIP3      4994            0.0000000000
     32333      5131  TIP3      OH2            65.6780430991       48.5265515054        7.0172859926  TIP3      4995            0.0000000000
     32334      5131  TIP3      H1             64.8477687706       48.3260158344        6.5696771091  TIP3      4995            0.0000000000
     32335      5131  TIP3      H2             65.3569172438       48.7590850786        7.9215221291  TIP3      4995            0.0000000000
     32336      5132  TIP3      OH2            60.4550897424       48.1870231438       12.6279227243  TIP3      4996            0.0000000000
     32337      5132  TIP3      H1             61.0293420337       48.2525429969       11.8233040558  TIP3      4996            0.0000000000
     32338      5132  TIP3      H2             60.8608787522       47.4709185386       13.1450554181  TIP3      4996            0.0000000000
     32339      5133  TIP3      OH2            57.9994632141       46.2430547193       18.1157216273  TIP3      4997            0.0000000000
     32340      5133  TIP3      H1             57.7224099176       46.2373593991       19.0531406443  TIP3      4997            0.0000000000
     32341      5133  TIP3      H2             57.1657200826       46.0532048140       17.6540785964  TIP3      4997            0.0000000000
     32342      5134  TIP3      OH2            64.7078398770       46.1123569575       19.6968339689  TIP3      4998            0.0000000000
     32343      5134  TIP3      H1             64.3345749700       45.9978196381       18.7971239858  TIP3      4998            0.0000000000
     32344      5134  TIP3      H2             65.5709420958       45.6791141424       19.6223705277  TIP3      4998            0.0000000000
     32345      5135  TIP3      OH2            63.0966418343       51.9231160569       10.1557174505  TIP3      4999            0.0000000000
     32346      5135  TIP3      H1             63.5167080478       52.7170541507        9.7863333929  TIP3      4999            0.0000000000
     32347      5135  TIP3      H2             62.1720232255       52.1703529650       10.0815832046  TIP3      4999            0.0000000000
     32348      5136  TIP3      OH2            58.8891536465       47.0935238538        4.7752306360  TIP3      5000            0.0000000000
     32349      5136  TIP3      H1             59.2550563852       47.6341465327        5.5078117306  TIP3      5000            0.0000000000
     32350      5136  TIP3      H2             57.9541236818       46.9941798061        5.0536563126  TIP3      5000            0.0000000000
     32351      5137  TIP3      OH2            64.3959478218       49.2831109882        9.4566231018  TIP3      5001            0.0000000000
     32352      5137  TIP3      H1             64.0102155735       50.1752681460        9.5827202449  TIP3      5001            0.0000000000
     32353      5137  TIP3      H2             63.8214301425       48.7740143994       10.0555759290  TIP3      5001            0.0000000000
     32354      5138  TIP3      OH2            64.9683185448       53.5038749607       16.8463834861  TIP3      5002            0.0000000000
     32355      5138  TIP3      H1             65.2322077826       54.2852488859       17.3669789138  TIP3      5002            0.0000000000
     32356      5138  TIP3      H2             65.3706485266       52.7827987450       17.3472195401  TIP3      5002            0.0000000000
     32357      5139  TIP3      OH2            63.1422549297       54.7250393701        9.1359313694  TIP3      5003            0.0000000000
     32358      5139  TIP3      H1             62.2013481381       54.5679637146        9.3735521561  TIP3      5003            0.0000000000
     32359      5139  TIP3      H2             63.2860808887       55.6210722946        9.5307009926  TIP3      5003            0.0000000000
     32360      5140  TIP3      OH2            59.5973274038       41.4757913976       18.2545257364  TIP3      5004            0.0000000000
     32361      5140  TIP3      H1             58.8466832627       41.8255083878       18.7719341311  TIP3      5004            0.0000000000
     32362      5140  TIP3      H2             59.3809803016       40.5246365115       18.2576312185  TIP3      5004            0.0000000000
     32363      5141  TIP3      OH2            59.0583514561       52.9796364809       15.9554203985  TIP3      5005            0.0000000000
     32364      5141  TIP3      H1             59.4407933462       52.1050154589       16.1703123100  TIP3      5005            0.0000000000
     32365      5141  TIP3      H2             59.4507692441       53.5224220960       16.6593072160  TIP3      5005            0.0000000000
     32366      5142  TIP3      OH2            63.2781133853       51.3612710342        5.5864296889  TIP3      5006            0.0000000000
     32367      5142  TIP3      H1             64.0551472762       50.9058394758        5.9303912817  TIP3      5006            0.0000000000
     32368      5142  TIP3      H2             63.3570930356       52.2679673744        5.9706076057  TIP3      5006            0.0000000000
     32369      5143  TIP3      OH2            60.1105247835       48.4612307275        6.7053171065  TIP3      5007            0.0000000000
     32370      5143  TIP3      H1             59.3369048632       48.9114541578        7.1195286512  TIP3      5007            0.0000000000
     32371      5143  TIP3      H2             60.5265715655       49.2014781295        6.2245700788  TIP3      5007            0.0000000000
     32372      5144  TIP3      OH2            65.1838090857       42.1236691475        8.6253302409  TIP3      5008            0.0000000000
     32373      5144  TIP3      H1             65.7789581513       42.8609400651        8.8678412702  TIP3      5008            0.0000000000
     32374      5144  TIP3      H2             64.7889428856       41.9548376711        9.5077281536  TIP3      5008            0.0000000000
     32375      5145  TIP3      OH2            63.4387254997       53.9535843273        6.5658691389  TIP3      5009            0.0000000000
     32376      5145  TIP3      H1             63.5530660384       54.7445221496        5.9986529975  TIP3      5009            0.0000000000
     32377      5145  TIP3      H2             63.2558871179       54.3589559658        7.4443694637  TIP3      5009            0.0000000000
     32378      5146  TIP3      OH2            62.1599361927       40.6615871940        6.1678626250  TIP3      5010            0.0000000000
     32379      5146  TIP3      H1             61.9816498881       41.4370362162        6.7283783437  TIP3      5010            0.0000000000
     32380      5146  TIP3      H2             62.6105422883       40.0717001559        6.7970742148  TIP3      5010            0.0000000000
     32381      5147  TIP3      OH2            60.7364592626       51.1051868054        4.7966925171  TIP3      5011            0.0000000000
     32382      5147  TIP3      H1             61.6047520117       51.3756813913        5.1680395038  TIP3      5011            0.0000000000
     32383      5147  TIP3      H2             61.0453932755       50.4712232030        4.1179942347  TIP3      5011            0.0000000000
     32384      5148  TIP3      OH2            59.0544293948       43.9636296241        4.7383218986  TIP3      5012            0.0000000000
     32385      5148  TIP3      H1             59.4297737413       44.8468666339        4.8704916439  TIP3      5012            0.0000000000
     32386      5148  TIP3      H2             58.1340368008       44.1903439440        4.5557632267  TIP3      5012            0.0000000000
     32387      5149  TIP3      OH2            59.9726110434       38.4857455355       13.0663099715  TIP3      5013            0.0000000000
     32388      5149  TIP3      H1             59.9356599469       38.3661013960       12.0877329115  TIP3      5013            0.0000000000
     32389      5149  TIP3      H2             59.7034289421       37.5794850984       13.3424495941  TIP3      5013            0.0000000000
     32390      5150  TIP3      OH2            58.0780298444       52.0744792017        8.4939427083  TIP3      5014            0.0000000000
     32391      5150  TIP3      H1             57.6222910285       52.7133475388        9.0589057471  TIP3      5014            0.0000000000
     32392      5150  TIP3      H2             58.3644164304       52.6761471883        7.7687299866  TIP3      5014            0.0000000000
     32393      5151  TIP3      OH2            57.8148765492       55.0803604499       20.1680067365  TIP3      5015            0.0000000000
     32394      5151  TIP3      H1             58.4580938157       54.8914044180       20.8855416398  TIP3      5015            0.0000000000
     32395      5151  TIP3      H2             57.3765683863       54.2050962103       20.0733931428  TIP3      5015            0.0000000000
     32396      5152  TIP3      OH2            62.4075245211       54.2976744098       21.4939094404  TIP3      5016            0.0000000000
     32397      5152  TIP3      H1             62.9992292436       53.5824677677       21.7894374497  TIP3      5016            0.0000000000
     32398      5152  TIP3      H2             62.1490326008       53.9483037124       20.6196535147  TIP3      5016            0.0000000000
     32399      5153  TIP3      OH2            57.5376552434       49.1835527264       21.2382592750  TIP3      5017            0.0000000000
     32400      5153  TIP3      H1             57.5259158446       48.2118620348       21.2246777373  TIP3      5017            0.0000000000
     32401      5153  TIP3      H2             56.7945446913       49.3913595594       20.6364379235  TIP3      5017            0.0000000000
     32402      5154  TIP3      OH2            62.0165888284       49.0255483535        3.4521414466  TIP3      5018            0.0000000000
     32403      5154  TIP3      H1             62.2250601016       48.3858164000        4.1602294232  TIP3      5018            0.0000000000
     32404      5154  TIP3      H2             62.7472554118       48.8719231358        2.8339988707  TIP3      5018            0.0000000000
     32405      5155  TIP3      OH2            64.5452126158       48.7972481678       20.5751603959  TIP3      5019            0.0000000000
     32406      5155  TIP3      H1             64.2980534620       49.3315721318       19.7787577799  TIP3      5019            0.0000000000
     32407      5155  TIP3      H2             64.5737403845       47.8889611322       20.1995578294  TIP3      5019            0.0000000000
     32408      5156  TIP3      OH2            58.5390911350       46.5716202411       20.9445282432  TIP3      5020            0.0000000000
     32409      5156  TIP3      H1             59.3230968621       46.0722908569       20.6782618513  TIP3      5020            0.0000000000
     32410      5156  TIP3      H2             58.7096437755       46.6923215266       21.9082967007  TIP3      5020            0.0000000000
     32411      5157  TIP3      OH2            62.7934868682       47.0282102433        5.4878021140  TIP3      5021            0.0000000000
     32412      5157  TIP3      H1             62.5351002913       46.5336125682        6.2970343569  TIP3      5021            0.0000000000
     32413      5157  TIP3      H2             63.5878101269       46.5589998712        5.1660378272  TIP3      5021            0.0000000000
     32414      5158  TIP3      OH2            62.7785159706       45.5097168495       17.8246690835  TIP3      5022            0.0000000000
     32415      5158  TIP3      H1             62.1739890330       46.2558129581       17.5991362619  TIP3      5022            0.0000000000
     32416      5158  TIP3      H2             63.2985581491       45.4056848605       17.0094546696  TIP3      5022            0.0000000000
     32417      5159  TIP3      OH2            64.7777214441       45.7160518579        4.2706768645  TIP3      5023            0.0000000000
     32418      5159  TIP3      H1             65.0903657998       44.9441533350        3.7775514832  TIP3      5023            0.0000000000
     32419      5159  TIP3      H2             65.5992777171       45.9891060883        4.7169292709  TIP3      5023            0.0000000000
     32420      5160  TIP3      OH2            63.2165550717       42.9890852458       19.1409304896  TIP3      5024            0.0000000000
     32421      5160  TIP3      H1             63.2927123300       42.2873574322       18.4617085835  TIP3      5024            0.0000000000
     32422      5160  TIP3      H2             63.2236833207       43.8170808316       18.6225917837  TIP3      5024            0.0000000000
     32423      5161  TIP3      OH2            63.3483277689       40.5072850494       16.9947384948  TIP3      5025            0.0000000000
     32424      5161  TIP3      H1             63.8080361141       41.0271332560       16.2919090143  TIP3      5025            0.0000000000
     32425      5161  TIP3      H2             62.4697820757       40.3513363397       16.5825144015  TIP3      5025            0.0000000000
     32426      5162  TIP3      OH2            65.5557124940       46.4239742443       16.5802547566  TIP3      5026            0.0000000000
     32427      5162  TIP3      H1             66.1028871372       46.6013700756       15.7882368951  TIP3      5026            0.0000000000
     32428      5162  TIP3      H2             64.7405546756       46.8925011996       16.3090214938  TIP3      5026            0.0000000000
     32429      5163  TIP3      OH2            60.6464771977       44.4018467988       19.3725901061  TIP3      5027            0.0000000000
     32430      5163  TIP3      H1             60.6898008897       43.4657176271       19.1173798187  TIP3      5027            0.0000000000
     32431      5163  TIP3      H2             61.4822241300       44.7640984834       19.0174195356  TIP3      5027            0.0000000000
     32432      5164  TIP3      OH2            64.2785834980       37.9653763552       16.9253548147  TIP3      5028            0.0000000000
     32433      5164  TIP3      H1             63.9842771823       38.8985684714       17.0225007969  TIP3      5028            0.0000000000
     32434      5164  TIP3      H2             63.4640973439       37.5229607985       16.6199857166  TIP3      5028            0.0000000000
     32435      5165  TIP3      OH2            65.1450837819       42.9695111734       21.4687319227  TIP3      5029            0.0000000000
     32436      5165  TIP3      H1             65.5701109731       42.1172692004       21.6503952900  TIP3      5029            0.0000000000
     32437      5165  TIP3      H2             64.7724963515       42.8194926702       20.5807907995  TIP3      5029            0.0000000000
     32438      5166  TIP3      OH2            59.7453528549       40.9159500415       21.5255515914  TIP3      5030            0.0000000000
     32439      5166  TIP3      H1             59.4183209041       40.4162994469       20.7517347201  TIP3      5030            0.0000000000
     32440      5166  TIP3      H2             59.6000702406       40.2923905844       22.2648787894  TIP3      5030            0.0000000000
     32441      5167  TIP3      OH2            65.0973130106       37.5281216928       19.5988958714  TIP3      5031            0.0000000000
     32442      5167  TIP3      H1             65.7714528013       36.8317734232       19.4718994506  TIP3      5031            0.0000000000
     32443      5167  TIP3      H2             64.6989375924       37.6169569028       18.7043733015  TIP3      5031            0.0000000000
     32444      5168  TIP3      OH2            66.0747014583       40.1217199815       21.0921263476  TIP3      5032            0.0000000000
     32445      5168  TIP3      H1             65.9433440170       39.4210887342       20.4250604475  TIP3      5032            0.0000000000
     32446      5168  TIP3      H2             65.2828227135       40.0396736891       21.6515147888  TIP3      5032            0.0000000000
     32447      5169  TIP3      OH2            64.2934055328       55.9973419279        4.7524152538  TIP3      5033            0.0000000000
     32448      5169  TIP3      H1             64.8031573170       56.4951401138        5.4130774958  TIP3      5033            0.0000000000
     32449      5169  TIP3      H2             64.3613153920       56.5747075455        3.9870933020  TIP3      5033            0.0000000000
     32450      5170  TIP3      OH2            58.0693119001       50.6452075678        4.7341152405  TIP3      5034            0.0000000000
     32451      5170  TIP3      H1             59.0103756958       50.9297343124        4.8545785673  TIP3      5034            0.0000000000
     32452      5170  TIP3      H2             58.0530442649       50.5242064005        3.7640942661  TIP3      5034            0.0000000000
     32453      5171  TIP3      OH2            57.0262036698       55.9948239690        9.5608488772  TIP3      5035            0.0000000000
     32454      5171  TIP3      H1             56.3004355095       55.5963741794        9.0313066161  TIP3      5035            0.0000000000
     32455      5171  TIP3      H2             57.2011195879       55.2662837998       10.1874282229  TIP3      5035            0.0000000000
     32456      5172  TIP3      OH2            57.7559565272       54.3066702646       11.4968829247  TIP3      5036            0.0000000000
     32457      5172  TIP3      H1             57.0667414789       53.9230435724       12.0677386793  TIP3      5036            0.0000000000
     32458      5172  TIP3      H2             58.3074435983       54.7137253815       12.1991653433  TIP3      5036            0.0000000000
     32459      5173  TIP3      OH2            57.6482600210       47.3741208949       14.2435322405  TIP3      5037            0.0000000000
     32460      5173  TIP3      H1             57.5583310009       46.9499066726       13.3629063682  TIP3      5037            0.0000000000
     32461      5173  TIP3      H2             58.5256503277       47.0335917629       14.5575844662  TIP3      5037            0.0000000000
     32462      5174  TIP3      OH2            57.4546096449       42.7726041601       20.4676701180  TIP3      5038            0.0000000000
     32463      5174  TIP3      H1             57.9695774194       42.6464481978       21.2679059594  TIP3      5038            0.0000000000
     32464      5174  TIP3      H2             56.9785503509       41.9143616454       20.4304542614  TIP3      5038            0.0000000000
     32465      5175  TIP3      OH2            58.8769407571       40.7888728812       13.6312707662  TIP3      5039            0.0000000000
     32466      5175  TIP3      H1             59.2196129593       39.8679579869       13.5212250496  TIP3      5039            0.0000000000
     32467      5175  TIP3      H2             59.6667830697       41.3386032266       13.4641518610  TIP3      5039            0.0000000000
     32468      5176  TIP3      OH2            57.1689515628       43.6362276229       14.5342798963  TIP3      5040            0.0000000000
     32469      5176  TIP3      H1             57.6153410535       42.9131755515       14.0689146794  TIP3      5040            0.0000000000
     32470      5176  TIP3      H2             57.5649674302       44.4046855670       14.0950246493  TIP3      5040            0.0000000000
     32471      5177  TIP3      OH2            57.1025576455       40.1839780270        8.0515103560  TIP3      5041            0.0000000000
     32472      5177  TIP3      H1             56.1660237269       40.3817046423        7.9177719682  TIP3      5041            0.0000000000
     32473      5177  TIP3      H2             57.4610753057       40.5258247873        7.2118775988  TIP3      5041            0.0000000000
     32474      5178  TIP3      OH2            57.4322686570       38.5918977488       16.4662191340  TIP3      5042            0.0000000000
     32475      5178  TIP3      H1             56.8740769840       38.2433466648       17.1924807067  TIP3      5042            0.0000000000
     32476      5178  TIP3      H2             56.9321135098       39.3588975366       16.1626512308  TIP3      5042            0.0000000000
     32477      5179  TIP3      OH2            60.0786335819       52.3532769059       21.0074220986  TIP3      5043            0.0000000000
     32478      5179  TIP3      H1             59.2101729135       52.4141810991       20.5853481364  TIP3      5043            0.0000000000
     32479      5179  TIP3      H2             60.0521209446       51.5016126501       21.4680424184  TIP3      5043            0.0000000000
     32480      5180  TIP3      OH2            62.3208082241       53.6271170237       17.1795511086  TIP3      5044            0.0000000000
     32481      5180  TIP3      H1             62.1630787547       54.4602392301       16.6908737081  TIP3      5044            0.0000000000
     32482      5180  TIP3      H2             63.2845521148       53.5467195418       17.0097060181  TIP3      5044            0.0000000000
     32483      5181  TIP3      OH2            59.4872115402       56.5439374589       16.7881825380  TIP3      5045            0.0000000000
     32484      5181  TIP3      H1             58.7698148973       57.2023968968       16.7900987609  TIP3      5045            0.0000000000
     32485      5181  TIP3      H2             59.5257027187       56.2791588374       17.7191999496  TIP3      5045            0.0000000000
     32486      5182  TIP3      OH2            61.7726301241       55.7984072343       15.7171537546  TIP3      5046            0.0000000000
     32487      5182  TIP3      H1             60.8414565677       55.9443971402       16.0167749543  TIP3      5046            0.0000000000
     32488      5182  TIP3      H2             61.8033009530       56.4424119605       14.9740040319  TIP3      5046            0.0000000000
     32489      5183  TIP3      OH2            59.2256770199       54.8622648265       13.6797329808  TIP3      5047            0.0000000000
     32490      5183  TIP3      H1             59.0165172138       54.5059412114       14.5659779976  TIP3      5047            0.0000000000
     32491      5183  TIP3      H2             60.0871131575       54.4487717939       13.4895086310  TIP3      5047            0.0000000000
     32492      5184  TIP3      OH2            61.3523885508       53.6920633149       12.2336933518  TIP3      5048            0.0000000000
     32493      5184  TIP3      H1             61.0014557120       52.8467984346       12.5665925326  TIP3      5048            0.0000000000
     32494      5184  TIP3      H2             62.1188836060       53.7812744491       12.8586510946  TIP3      5048            0.0000000000
     32495      5185  TIP3      OH2            63.3699334941       53.2993720372       13.7954062819  TIP3      5049            0.0000000000
     32496      5185  TIP3      H1             63.8950502790       52.6217705143       13.3451561519  TIP3      5049            0.0000000000
     32497      5185  TIP3      H2             63.7847339496       53.3564852323       14.6677087345  TIP3      5049            0.0000000000
     32498      5186  TIP3      OH2            59.4518384355       37.8905102852       10.4520581565  TIP3      5050            0.0000000000
     32499      5186  TIP3      H1             58.5577465122       37.7856865761       10.0714182393  TIP3      5050            0.0000000000
     32500      5186  TIP3      H2             59.8914596325       37.0415924716       10.2220164915  TIP3      5050            0.0000000000
     32501      5187  TIP3      OH2            58.5266198704       38.1334260574        6.1935706312  TIP3      5051            0.0000000000
     32502      5187  TIP3      H1             58.9603163656       38.9018306275        5.7484996871  TIP3      5051            0.0000000000
     32503      5187  TIP3      H2             57.8879988901       38.5705946101        6.7816935792  TIP3      5051            0.0000000000
     32504      5188  TIP3      OH2            64.4578811512       38.2542690805       10.4258520176  TIP3      5052            0.0000000000
     32505      5188  TIP3      H1             64.4606230158       39.2182010407       10.5433046423  TIP3      5052            0.0000000000
     32506      5188  TIP3      H2             64.7467514808       37.9962849276       11.3354051699  TIP3      5052            0.0000000000
     32507      5189  TIP3      OH2            58.0788301645       54.1061880990        6.6457510175  TIP3      5053            0.0000000000
     32508      5189  TIP3      H1             57.1707493817       54.1893122379        6.3015438726  TIP3      5053            0.0000000000
     32509      5189  TIP3      H2             58.3406637949       55.0304790401        6.5159965871  TIP3      5053            0.0000000000
     32510      5190  TIP3      OH2            60.1493054291       39.6530776434        4.7603077323  TIP3      5054            0.0000000000
     32511      5190  TIP3      H1             60.5195454809       39.3152033569        3.9353342183  TIP3      5054            0.0000000000
     32512      5190  TIP3      H2             60.9466401980       39.9566365444        5.2478031345  TIP3      5054            0.0000000000
     32513      5191  TIP3      OH2            64.3915348946       38.9823137368        7.2234195819  TIP3      5055            0.0000000000
     32514      5191  TIP3      H1             64.5501705486       38.7498375677        8.1542707530  TIP3      5055            0.0000000000
     32515      5191  TIP3      H2             65.2041803252       39.4945350557        7.0823293953  TIP3      5055            0.0000000000
     32516      5192  TIP3      OH2            59.2307132302       38.7420438755       19.2540308283  TIP3      5056            0.0000000000
     32517      5192  TIP3      H1             58.6500104073       38.0619150183       19.6437568334  TIP3      5056            0.0000000000
     32518      5192  TIP3      H2             60.0335215105       38.6393551402       19.7984453936  TIP3      5056            0.0000000000
     32519      5193  TIP3      OH2            61.2108719622       38.4405650634       21.2778554066  TIP3      5057            0.0000000000
     32520      5193  TIP3      H1             62.0749927433       38.0102803055       21.2046589960  TIP3      5057            0.0000000000
     32521      5193  TIP3      H2             60.9985077822       38.2735347738       22.2169314400  TIP3      5057            0.0000000000
     32522      5194  TIP3      OH2            60.2549977923       55.3536690973        3.9664228374  TIP3      5058            0.0000000000
     32523      5194  TIP3      H1             59.7160057186       55.7428058584        4.6720880549  TIP3      5058            0.0000000000
     32524      5194  TIP3      H2             60.4794483182       54.4858988233        4.3277188734  TIP3      5058            0.0000000000
     32525      5195  TIP3      OH2            11.9605993959       65.8326323806       13.3076177710  TIP3      5059            0.0000000000
     32526      5195  TIP3      H1             12.0776108417       65.7100763279       14.2668732557  TIP3      5059            0.0000000000
     32527      5195  TIP3      H2             10.9927759588       65.8467680621       13.2161581735  TIP3      5059            0.0000000000
     32528      5196  TIP3      OH2             3.1018561476       65.4779082106       14.7785162089  TIP3      5060            0.0000000000
     32529      5196  TIP3      H1              3.0975607926       64.7186447164       15.3843698893  TIP3      5060            0.0000000000
     32530      5196  TIP3      H2              3.8236677585       66.0118186283       15.1353907518  TIP3      5060            0.0000000000
     32531      5197  TIP3      OH2             1.5809465454       64.0976799534        8.8413934975  TIP3      5061            0.0000000000
     32532      5197  TIP3      H1              1.3453705696       64.6656171625        9.6010607064  TIP3      5061            0.0000000000
     32533      5197  TIP3      H2              1.2723773853       63.2286624621        9.1600881856  TIP3      5061            0.0000000000
     32534      5198  TIP3      OH2             1.1353860624       65.4937640846       11.1427697334  TIP3      5062            0.0000000000
     32535      5198  TIP3      H1              1.0862520839       64.7035691030       11.7066955000  TIP3      5062            0.0000000000
     32536      5198  TIP3      H2              2.1069970151       65.6515314355       11.1634013207  TIP3      5062            0.0000000000
     32537      5199  TIP3      OH2            17.6387213058       59.4214823472       14.2119188261  TIP3      5063            0.0000000000
     32538      5199  TIP3      H1             18.4036824871       59.7965265825       14.6856485150  TIP3      5063            0.0000000000
     32539      5199  TIP3      H2             18.0572134266       58.6999171371       13.7210377620  TIP3      5063            0.0000000000
     32540      5200  TIP3      OH2            12.5261005952       62.8559996180       14.6854209813  TIP3      5064            0.0000000000
     32541      5200  TIP3      H1             12.5756143814       61.8896967718       14.8214241945  TIP3      5064            0.0000000000
     32542      5200  TIP3      H2             12.3287325326       62.9274238862       13.7190599428  TIP3      5064            0.0000000000
     32543      5201  TIP3      OH2             5.3379141390       60.2414508151       11.3555502240  TIP3      5065            0.0000000000
     32544      5201  TIP3      H1              5.7988163218       60.9935669288       10.9242576214  TIP3      5065            0.0000000000
     32545      5201  TIP3      H2              4.8818020889       59.9044788890       10.5548104191  TIP3      5065            0.0000000000
     32546      5202  TIP3      OH2            13.3722300731       60.8782996735       10.5905725843  TIP3      5066            0.0000000000
     32547      5202  TIP3      H1             13.9041936203       60.3213466512       11.2036267269  TIP3      5066            0.0000000000
     32548      5202  TIP3      H2             14.0475545687       61.5462272517       10.3979914523  TIP3      5066            0.0000000000
     32549      5203  TIP3      OH2             1.8339923584       62.8080110674       11.8598191580  TIP3      5067            0.0000000000
     32550      5203  TIP3      H1              2.5049886665       62.3026673869       12.3411567474  TIP3      5067            0.0000000000
     32551      5203  TIP3      H2              2.4269125431       63.2267680379       11.1966453838  TIP3      5067            0.0000000000
     32552      5204  TIP3      OH2             7.5788936897       64.5325368263       11.7089768656  TIP3      5068            0.0000000000
     32553      5204  TIP3      H1              8.3072354798       63.8867092224       11.8599164512  TIP3      5068            0.0000000000
     32554      5204  TIP3      H2              7.0219676436       64.0250566797       11.0868228755  TIP3      5068            0.0000000000
     32555      5205  TIP3      OH2            18.1316720567       61.1053154482       17.0462350600  TIP3      5069            0.0000000000
     32556      5205  TIP3      H1             17.4039269230       61.6043843303       16.6175297993  TIP3      5069            0.0000000000
     32557      5205  TIP3      H2             18.1093025860       61.4614917630       17.9433896346  TIP3      5069            0.0000000000
     32558      5206  TIP3      OH2             5.2609865085       59.5550237824       15.5631524803  TIP3      5070            0.0000000000
     32559      5206  TIP3      H1              4.7102838902       60.0750229901       14.9403746707  TIP3      5070            0.0000000000
     32560      5206  TIP3      H2              4.6346497177       59.4141876381       16.2968584695  TIP3      5070            0.0000000000
     32561      5207  TIP3      OH2            15.4232421612       60.2368447214       12.1169804906  TIP3      5071            0.0000000000
     32562      5207  TIP3      H1             15.7461420525       59.5630514638       12.7354351348  TIP3      5071            0.0000000000
     32563      5207  TIP3      H2             15.8395523269       61.0421008328       12.4863802878  TIP3      5071            0.0000000000
     32564      5208  TIP3      OH2             4.1288368049       61.4425625613       13.6641377029  TIP3      5072            0.0000000000
     32565      5208  TIP3      H1              4.6506752567       62.2220901726       13.9285976717  TIP3      5072            0.0000000000
     32566      5208  TIP3      H2              4.5353209510       61.2221898515       12.7983483760  TIP3      5072            0.0000000000
     32567      5209  TIP3      OH2            15.0172892840       59.1155141759       15.5299543347  TIP3      5073            0.0000000000
     32568      5209  TIP3      H1             14.2941063028       59.3665381608       14.9109357825  TIP3      5073            0.0000000000
     32569      5209  TIP3      H2             15.7825278674       59.5530396102       15.1120851356  TIP3      5073            0.0000000000
     32570      5210  TIP3      OH2             8.1098456447       56.8940440441       12.5985026035  TIP3      5074            0.0000000000
     32571      5210  TIP3      H1              8.0305475521       55.9472818775       12.7681023530  TIP3      5074            0.0000000000
     32572      5210  TIP3      H2              7.2898639858       57.2361079745       13.0232827745  TIP3      5074            0.0000000000
     32573      5211  TIP3      OH2            10.6318586495       65.1823740359        7.4919769602  TIP3      5075            0.0000000000
     32574      5211  TIP3      H1             10.1016241044       65.9475504465        7.2423211135  TIP3      5075            0.0000000000
     32575      5211  TIP3      H2             11.5359435877       65.4406320510        7.1981329538  TIP3      5075            0.0000000000
     32576      5212  TIP3      OH2            10.7684392802       64.2544287138        4.4892521788  TIP3      5076            0.0000000000
     32577      5212  TIP3      H1             11.1964377742       64.6608309316        5.2544034720  TIP3      5076            0.0000000000
     32578      5212  TIP3      H2             10.8913641552       63.3091081088        4.6793035919  TIP3      5076            0.0000000000
     32579      5213  TIP3      OH2            17.9324766813       64.8619025132       15.6564010097  TIP3      5077            0.0000000000
     32580      5213  TIP3      H1             18.5309171903       65.6401150587       15.7443886787  TIP3      5077            0.0000000000
     32581      5213  TIP3      H2             17.9970821829       64.6911527742       14.7003244790  TIP3      5077            0.0000000000
     32582      5214  TIP3      OH2            14.3655975083       65.1834159818        9.2205289466  TIP3      5078            0.0000000000
     32583      5214  TIP3      H1             13.9177376419       64.6057690166        9.8594559101  TIP3      5078            0.0000000000
     32584      5214  TIP3      H2             15.2961372536       64.9564225139        9.3992653780  TIP3      5078            0.0000000000
     32585      5215  TIP3      OH2            14.1559923625       64.7558731231       17.2872176071  TIP3      5079            0.0000000000
     32586      5215  TIP3      H1             14.1113485809       65.3144428669       18.0961917639  TIP3      5079            0.0000000000
     32587      5215  TIP3      H2             13.2490101793       64.8177430800       16.9266213362  TIP3      5079            0.0000000000
     32588      5216  TIP3      OH2             6.1995296985       65.0984909789       14.0082568383  TIP3      5080            0.0000000000
     32589      5216  TIP3      H1              6.5276821514       64.7967368453       13.1355342281  TIP3      5080            0.0000000000
     32590      5216  TIP3      H2              6.1455389264       66.0600266714       13.8195763981  TIP3      5080            0.0000000000
     32591      5217  TIP3      OH2            13.1279878161       65.8185296440        6.9481934600  TIP3      5081            0.0000000000
     32592      5217  TIP3      H1             13.5987072506       65.4299882207        7.7272561831  TIP3      5081            0.0000000000
     32593      5217  TIP3      H2             13.7825683236       65.6897046577        6.2185401919  TIP3      5081            0.0000000000
     32594      5218  TIP3      OH2             4.9307915826       65.9012289874       17.5461003019  TIP3      5082            0.0000000000
     32595      5218  TIP3      H1              4.9421865443       66.4246685464       18.3616910158  TIP3      5082            0.0000000000
     32596      5218  TIP3      H2              4.0411710323       65.5024762410       17.6008434560  TIP3      5082            0.0000000000
     32597      5219  TIP3      OH2            16.7876113165       56.7427333974        5.7660423401  TIP3      5083            0.0000000000
     32598      5219  TIP3      H1             16.6322532481       56.8538713573        4.8063821081  TIP3      5083            0.0000000000
     32599      5219  TIP3      H2             17.2147825533       57.5957611112        5.9469519120  TIP3      5083            0.0000000000
     32600      5220  TIP3      OH2             4.9822582470       64.9592586894        7.4785504958  TIP3      5084            0.0000000000
     32601      5220  TIP3      H1              4.6967113399       65.8666997559        7.6349170010  TIP3      5084            0.0000000000
     32602      5220  TIP3      H2              4.2706077133       64.4628425884        7.9196060102  TIP3      5084            0.0000000000
     32603      5221  TIP3      OH2            16.2924584395       62.2167313589       19.1366032942  TIP3      5085            0.0000000000
     32604      5221  TIP3      H1             15.7578084986       62.6920949101       18.4785963130  TIP3      5085            0.0000000000
     32605      5221  TIP3      H2             16.1848224908       61.2986205773       18.8014449815  TIP3      5085            0.0000000000
     32606      5222  TIP3      OH2             5.8736547655       57.8248558014       13.6865365261  TIP3      5086            0.0000000000
     32607      5222  TIP3      H1              5.1905429029       58.3316444570       13.2187864340  TIP3      5086            0.0000000000
     32608      5222  TIP3      H2              5.9252218526       58.3424253588       14.5200774967  TIP3      5086            0.0000000000
     32609      5223  TIP3      OH2            10.8785468655       57.1941555058       16.9351082236  TIP3      5087            0.0000000000
     32610      5223  TIP3      H1             11.1240853612       56.8684719474       17.8259519447  TIP3      5087            0.0000000000
     32611      5223  TIP3      H2              9.9175504376       57.3666455718       17.0128467279  TIP3      5087            0.0000000000
     32612      5224  TIP3      OH2            13.3387404421       61.3542400244       18.1123265178  TIP3      5088            0.0000000000
     32613      5224  TIP3      H1             12.6914517983       61.4433745591       18.8495407482  TIP3      5088            0.0000000000
     32614      5224  TIP3      H2             13.4313951920       62.2631933808       17.7852807699  TIP3      5088            0.0000000000
     32615      5225  TIP3      OH2            14.6600650081       65.4692405473        4.7874764604  TIP3      5089            0.0000000000
     32616      5225  TIP3      H1             14.6461274379       65.0713182043        3.9102971093  TIP3      5089            0.0000000000
     32617      5225  TIP3      H2             15.6101287480       65.6761436840        4.8826538926  TIP3      5089            0.0000000000
     32618      5226  TIP3      OH2            10.1480799372       60.7605237867        4.6512351434  TIP3      5090            0.0000000000
     32619      5226  TIP3      H1              9.8669843251       60.3136201433        5.4674461351  TIP3      5090            0.0000000000
     32620      5226  TIP3      H2              9.9762736880       60.0834833370        3.9842954923  TIP3      5090            0.0000000000
     32621      5227  TIP3      OH2             6.1287971939       62.7601005688       15.3388333279  TIP3      5091            0.0000000000
     32622      5227  TIP3      H1              5.2660791141       62.7407716530       15.7908407416  TIP3      5091            0.0000000000
     32623      5227  TIP3      H2              6.0636788597       63.6324517292       14.8859463101  TIP3      5091            0.0000000000
     32624      5228  TIP3      OH2             6.0283728968       62.4569564951        9.9683787501  TIP3      5092            0.0000000000
     32625      5228  TIP3      H1              5.2180034365       63.0143308138       10.0380104928  TIP3      5092            0.0000000000
     32626      5228  TIP3      H2              6.1934295828       62.4583710318        9.0127129658  TIP3      5092            0.0000000000
     32627      5229  TIP3      OH2            11.8759951980       63.7336833677        9.5537484528  TIP3      5093            0.0000000000
     32628      5229  TIP3      H1             11.3964180612       64.3736644647        8.9866033934  TIP3      5093            0.0000000000
     32629      5229  TIP3      H2             11.7810880031       62.9375086927        9.0032402109  TIP3      5093            0.0000000000
     32630      5230  TIP3      OH2            10.4868508714       63.7142803028       20.5099250817  TIP3      5094            0.0000000000
     32631      5230  TIP3      H1             10.1828901213       62.9173253872       20.9958910361  TIP3      5094            0.0000000000
     32632      5230  TIP3      H2             11.3538712381       63.8881172737       20.9146621026  TIP3      5094            0.0000000000
     32633      5231  TIP3      OH2            11.9698304779       62.6781782688       12.0997425008  TIP3      5095            0.0000000000
     32634      5231  TIP3      H1             12.0319653289       63.3148148080       11.3500837413  TIP3      5095            0.0000000000
     32635      5231  TIP3      H2             12.2390306047       61.8740559214       11.6142303562  TIP3      5095            0.0000000000
     32636      5232  TIP3      OH2             3.4487032399       62.8494209779       16.3558265432  TIP3      5096            0.0000000000
     32637      5232  TIP3      H1              3.3310950472       63.0775957164       17.2884641390  TIP3      5096            0.0000000000
     32638      5232  TIP3      H2              3.2328185883       61.8909270616       16.3661335187  TIP3      5096            0.0000000000
     32639      5233  TIP3      OH2             6.7547291558       60.6569321448        3.6931200711  TIP3      5097            0.0000000000
     32640      5233  TIP3      H1              6.8250088059       60.3673983259        4.6160917015  TIP3      5097            0.0000000000
     32641      5233  TIP3      H2              6.2944918406       61.5119915706        3.8236299673  TIP3      5097            0.0000000000
     32642      5234  TIP3      OH2             0.9469728349       59.3317202296       10.6089285740  TIP3      5098            0.0000000000
     32643      5234  TIP3      H1              1.3820922086       59.7040737333       11.3926069298  TIP3      5098            0.0000000000
     32644      5234  TIP3      H2              0.0293439277       59.2251497022       10.9318068097  TIP3      5098            0.0000000000
     32645      5235  TIP3      OH2             1.3410869447       60.7427376377        6.2483341909  TIP3      5099            0.0000000000
     32646      5235  TIP3      H1              1.9402305584       61.0020828896        5.5262706977  TIP3      5099            0.0000000000
     32647      5235  TIP3      H2              0.8234710455       61.5390734299        6.4056013567  TIP3      5099            0.0000000000
     32648      5236  TIP3      OH2            11.4765540540       64.5435115140       16.4394128522  TIP3      5100            0.0000000000
     32649      5236  TIP3      H1             11.6639806438       63.8763677069       15.7298766903  TIP3      5100            0.0000000000
     32650      5236  TIP3      H2             11.0668110798       63.9425155490       17.1071811594  TIP3      5100            0.0000000000
     32651      5237  TIP3      OH2             8.6010341574       60.5101416375       10.7989304474  TIP3      5101            0.0000000000
     32652      5237  TIP3      H1              7.7658649079       60.7240243726       11.2317437247  TIP3      5101            0.0000000000
     32653      5237  TIP3      H2              9.0568360622       59.9279802084       11.4398925974  TIP3      5101            0.0000000000
     32654      5238  TIP3      OH2             2.8202888902       61.1959696708        9.3626884952  TIP3      5102            0.0000000000
     32655      5238  TIP3      H1              2.5251910421       61.5274271101        8.5049466695  TIP3      5102            0.0000000000
     32656      5238  TIP3      H2              3.4589400822       60.4976302851        9.1385068049  TIP3      5102            0.0000000000
     32657      5239  TIP3      OH2             7.0010966494       61.8455488003        7.1045720568  TIP3      5103            0.0000000000
     32658      5239  TIP3      H1              7.6339079789       62.5479814416        7.2942486140  TIP3      5103            0.0000000000
     32659      5239  TIP3      H2              6.3027153808       62.3223216234        6.6237438462  TIP3      5103            0.0000000000
     32660      5240  TIP3      OH2            13.0354234214       59.9816359129       14.0833404260  TIP3      5104            0.0000000000
     32661      5240  TIP3      H1             12.4337422935       59.7385048885       14.8311657117  TIP3      5104            0.0000000000
     32662      5240  TIP3      H2             12.4175234501       60.0222977524       13.3400487602  TIP3      5104            0.0000000000
     32663      5241  TIP3      OH2             5.8137574537       63.1281032221        4.5346877470  TIP3      5105            0.0000000000
     32664      5241  TIP3      H1              5.2757849798       63.1815890827        3.7167164902  TIP3      5105            0.0000000000
     32665      5241  TIP3      H2              6.6713997394       63.5241808893        4.2564022063  TIP3      5105            0.0000000000
     32666      5242  TIP3      OH2             9.3383360683       62.7667317823       12.5532220967  TIP3      5106            0.0000000000
     32667      5242  TIP3      H1             10.3147108139       62.7538426784       12.4215683226  TIP3      5106            0.0000000000
     32668      5242  TIP3      H2              9.2337002704       62.2398457294       13.3768822933  TIP3      5106            0.0000000000
     32669      5243  TIP3      OH2             4.7333971504       58.9979249539        9.0933611663  TIP3      5107            0.0000000000
     32670      5243  TIP3      H1              4.1689796728       58.2765721455        9.4683580457  TIP3      5107            0.0000000000
     32671      5243  TIP3      H2              5.5669096018       58.5126280157        8.9899971769  TIP3      5107            0.0000000000
     32672      5244  TIP3      OH2             8.8960855462       62.0839151273       15.1556013454  TIP3      5108            0.0000000000
     32673      5244  TIP3      H1              8.0560997780       62.5616737942       14.9851694123  TIP3      5108            0.0000000000
     32674      5244  TIP3      H2              9.2142551638       62.5140691299       15.9675483036  TIP3      5108            0.0000000000
     32675      5245  TIP3      OH2            12.6093630365       60.2876612052        5.6568589683  TIP3      5109            0.0000000000
     32676      5245  TIP3      H1             11.7945381969       60.5438770037        5.1896741977  TIP3      5109            0.0000000000
     32677      5245  TIP3      H2             13.0847654692       61.1422272766        5.6476416125  TIP3      5109            0.0000000000
     32678      5246  TIP3      OH2            13.4344110249       62.9032606178        6.4421394825  TIP3      5110            0.0000000000
     32679      5246  TIP3      H1             14.1736015998       63.1229451353        7.0311983763  TIP3      5110            0.0000000000
     32680      5246  TIP3      H2             13.5794887233       63.5077184583        5.6933425352  TIP3      5110            0.0000000000
     32681      5247  TIP3      OH2             1.9726432880       64.9974583729       18.2626801201  TIP3      5111            0.0000000000
     32682      5247  TIP3      H1              1.7886533724       64.9212108680       19.2243153366  TIP3      5111            0.0000000000
     32683      5247  TIP3      H2              1.0642180708       64.8980274882       17.9258100871  TIP3      5111            0.0000000000
     32684      5248  TIP3      OH2             7.5739344308       64.6496208519       20.4154993489  TIP3      5112            0.0000000000
     32685      5248  TIP3      H1              7.1485228011       64.2011992603       19.6525137767  TIP3      5112            0.0000000000
     32686      5248  TIP3      H2              8.4802156856       64.2974030304       20.3333786325  TIP3      5112            0.0000000000
     32687      5249  TIP3      OH2            17.6982440962       63.1428499577        7.0365240510  TIP3      5113            0.0000000000
     32688      5249  TIP3      H1             17.4210541371       63.2251827132        6.0967875108  TIP3      5113            0.0000000000
     32689      5249  TIP3      H2             18.3373717289       63.8726747372        7.0711113825  TIP3      5113            0.0000000000
     32690      5250  TIP3      OH2             1.9356009687       64.3942105365        4.3632466813  TIP3      5114            0.0000000000
     32691      5250  TIP3      H1              2.4060209055       65.2141649535        4.1451519875  TIP3      5114            0.0000000000
     32692      5250  TIP3      H2              1.3762969156       64.7193355065        5.0954238012  TIP3      5114            0.0000000000
     32693      5251  TIP3      OH2             2.7321468661       60.3254124399       17.2501514925  TIP3      5115            0.0000000000
     32694      5251  TIP3      H1              2.3638116193       60.9201057107       17.9360160037  TIP3      5115            0.0000000000
     32695      5251  TIP3      H2              2.4664071159       59.4775475158       17.6389278802  TIP3      5115            0.0000000000
     32696      5252  TIP3      OH2            11.9898971278       59.5882508115       16.4197253373  TIP3      5116            0.0000000000
     32697      5252  TIP3      H1             12.7036650083       59.7762301036       17.0573305402  TIP3      5116            0.0000000000
     32698      5252  TIP3      H2             11.6311193522       58.7201607014       16.7075349526  TIP3      5116            0.0000000000
     32699      5253  TIP3      OH2            12.5741268596       59.8758019494        8.3081563855  TIP3      5117            0.0000000000
     32700      5253  TIP3      H1             12.5096108880       60.4409671425        7.5126663606  TIP3      5117            0.0000000000
     32701      5253  TIP3      H2             12.9259983044       60.4617269604        9.0115733700  TIP3      5117            0.0000000000
     32702      5254  TIP3      OH2             9.7896306192       61.3461031879        8.6467304642  TIP3      5118            0.0000000000
     32703      5254  TIP3      H1              9.4084170324       62.2309761347        8.5804301995  TIP3      5118            0.0000000000
     32704      5254  TIP3      H2              9.4323025786       61.0153666653        9.5144120701  TIP3      5118            0.0000000000
     32705      5255  TIP3      OH2            10.4455994696       62.3939159296       17.8003699562  TIP3      5119            0.0000000000
     32706      5255  TIP3      H1             10.3633869017       62.4497132833       18.7719640404  TIP3      5119            0.0000000000
     32707      5255  TIP3      H2             10.8508693035       61.5262746961       17.6263331151  TIP3      5119            0.0000000000
     32708      5256  TIP3      OH2            10.6717103803       58.1487543683        9.0012117732  TIP3      5120            0.0000000000
     32709      5256  TIP3      H1             10.2043168911       58.5396815656        9.7760364983  TIP3      5120            0.0000000000
     32710      5256  TIP3      H2             11.2659514414       58.9200952362        8.7906378353  TIP3      5120            0.0000000000
     32711      5257  TIP3      OH2             5.7184005636       59.1681954640        6.0943627718  TIP3      5121            0.0000000000
     32712      5257  TIP3      H1              5.7721438121       59.9929648203        6.6022601050  TIP3      5121            0.0000000000
     32713      5257  TIP3      H2              6.2980041066       58.5937314704        6.6136613763  TIP3      5121            0.0000000000
     32714      5258  TIP3      OH2            15.8189791107       59.7427937182       18.1049953168  TIP3      5122            0.0000000000
     32715      5258  TIP3      H1             14.9154631082       60.0736368290       17.9381106922  TIP3      5122            0.0000000000
     32716      5258  TIP3      H2             16.1331252372       59.6126928105       17.1975093777  TIP3      5122            0.0000000000
     32717      5259  TIP3      OH2            14.8809584037       63.7246252005       12.2909293289  TIP3      5123            0.0000000000
     32718      5259  TIP3      H1             14.2216826325       63.2547209115       12.8244131047  TIP3      5123            0.0000000000
     32719      5259  TIP3      H2             15.6846507437       63.6560764294       12.8513922969  TIP3      5123            0.0000000000
     32720      5260  TIP3      OH2             3.1106945899       61.9815135118        3.8453485904  TIP3      5124            0.0000000000
     32721      5260  TIP3      H1              2.8624649258       62.9014887061        4.0706114792  TIP3      5124            0.0000000000
     32722      5260  TIP3      H2              2.2483620349       61.6212931697        3.6058537737  TIP3      5124            0.0000000000
     32723      5261  TIP3      OH2             2.9221209412       57.4800317393       13.3104586687  TIP3      5125            0.0000000000
     32724      5261  TIP3      H1              3.1311089482       57.2942266193       12.3781411556  TIP3      5125            0.0000000000
     32725      5261  TIP3      H2              2.8518506299       56.5615194318       13.6557971785  TIP3      5125            0.0000000000
     32726      5262  TIP3      OH2             1.6107771505       65.0161709488       20.9679489085  TIP3      5126            0.0000000000
     32727      5262  TIP3      H1              2.3973258389       64.4580070262       21.0731282757  TIP3      5126            0.0000000000
     32728      5262  TIP3      H2              1.4015396283       65.2144009791       21.8900442050  TIP3      5126            0.0000000000
     32729      5263  TIP3      OH2             7.2271041589       65.8846511860        5.8735512494  TIP3      5127            0.0000000000
     32730      5263  TIP3      H1              6.4684998757       65.3612296121        6.2043421600  TIP3      5127            0.0000000000
     32731      5263  TIP3      H2              7.5962387187       65.3279394154        5.1540099463  TIP3      5127            0.0000000000
     32732      5264  TIP3      OH2             6.6987258546       63.8102793896       18.0310694279  TIP3      5128            0.0000000000
     32733      5264  TIP3      H1              6.0271324420       64.5022370372       17.8656005368  TIP3      5128            0.0000000000
     32734      5264  TIP3      H2              7.3166206230       63.9911523378       17.2835612126  TIP3      5128            0.0000000000
     32735      5265  TIP3      OH2             8.1356040981       64.2629676190        3.8488573383  TIP3      5129            0.0000000000
     32736      5265  TIP3      H1              8.1332627196       64.1856974564        2.8709430424  TIP3      5129            0.0000000000
     32737      5265  TIP3      H2              9.1044395097       64.1630687758        4.0112388221  TIP3      5129            0.0000000000
     32738      5266  TIP3      OH2             7.3582904333       61.4286256371       18.9453931889  TIP3      5130            0.0000000000
     32739      5266  TIP3      H1              7.3527677615       60.7696533256       18.2120115686  TIP3      5130            0.0000000000
     32740      5266  TIP3      H2              7.1298554366       62.2595603274       18.4702519085  TIP3      5130            0.0000000000
     32741      5267  TIP3      OH2             7.6697514543       59.9743788520       16.7001353156  TIP3      5131            0.0000000000
     32742      5267  TIP3      H1              8.1924703624       60.6197048289       16.1735810605  TIP3      5131            0.0000000000
     32743      5267  TIP3      H2              6.8619584463       59.9522944126       16.1391321696  TIP3      5131            0.0000000000
     32744      5268  TIP3      OH2             8.7066576199       64.8171335770       16.5153476048  TIP3      5132            0.0000000000
     32745      5268  TIP3      H1              9.6636113637       64.9039511629       16.3594721974  TIP3      5132            0.0000000000
     32746      5268  TIP3      H2              8.4043987197       65.7440482680       16.4147028042  TIP3      5132            0.0000000000
     32747      5269  TIP3      OH2            13.0248810905       62.7168259559       21.9379919799  TIP3      5133            0.0000000000
     32748      5269  TIP3      H1             12.5467021264       62.1284950426       21.3138437130  TIP3      5133            0.0000000000
     32749      5269  TIP3      H2             13.7778004062       62.1724425696       22.2077455193  TIP3      5133            0.0000000000
     32750      5270  TIP3      OH2            14.2629074987        0.2263323734       19.3839664024  TIP3      5134            0.0000000000
     32751      5270  TIP3      H1             14.1082073855        1.0480876186       19.8825770409  TIP3      5134            0.0000000000
     32752      5270  TIP3      H2             15.0601849777       -0.1325129574       19.8373712302  TIP3      5134            0.0000000000
     32753      5271  TIP3      OH2             5.6202480929       61.6001542355       21.1901060116  TIP3      5135            0.0000000000
     32754      5271  TIP3      H1              4.7101073516       61.2712732097       21.0095777809  TIP3      5135            0.0000000000
     32755      5271  TIP3      H2              6.0351718309       61.6315416782       20.3006430307  TIP3      5135            0.0000000000
     32756      5272  TIP3      OH2             8.1693635104       57.1839896024       16.2048510145  TIP3      5136            0.0000000000
     32757      5272  TIP3      H1              7.8498570618       58.0475101744       16.5345319770  TIP3      5136            0.0000000000
     32758      5272  TIP3      H2              7.3278906466       56.7037171035       16.2022973450  TIP3      5136            0.0000000000
     32759      5273  TIP3      OH2             9.1797051625       61.2864255709       20.9809048517  TIP3      5137            0.0000000000
     32760      5273  TIP3      H1              8.6447036394       60.9202314761       21.7241682906  TIP3      5137            0.0000000000
     32761      5273  TIP3      H2              8.5726242049       61.1419877795       20.2148686236  TIP3      5137            0.0000000000
     32762      5274  TIP3      OH2            11.7469028807       60.8787851989       20.2958415324  TIP3      5138            0.0000000000
     32763      5274  TIP3      H1             10.8368665093       60.8598766491       20.6707743679  TIP3      5138            0.0000000000
     32764      5274  TIP3      H2             12.0873049425       59.9822860914       20.4952941312  TIP3      5138            0.0000000000
     32765      5275  TIP3      OH2            13.1845007298       58.7027875855       21.6578989303  TIP3      5139            0.0000000000
     32766      5275  TIP3      H1             14.1528619877       58.7611692245       21.6028647994  TIP3      5139            0.0000000000
     32767      5275  TIP3      H2             13.0064113684       59.2507071294       22.4529831586  TIP3      5139            0.0000000000
     32768      5276  TIP3      OH2             3.3185625059       60.0321213133       21.2403648499  TIP3      5140            0.0000000000
     32769      5276  TIP3      H1              3.5589602229       59.2210091797       20.7533705860  TIP3      5140            0.0000000000
     32770      5276  TIP3      H2              2.7513387037       59.7066118516       21.9436022150  TIP3      5140            0.0000000000
     32771      5277  TIP3      OH2             7.7649616751       56.4963470043       19.3105709943  TIP3      5141            0.0000000000
     32772      5277  TIP3      H1              8.2121032506       55.6585589355       19.5451826773  TIP3      5141            0.0000000000
     32773      5277  TIP3      H2              7.7454986091       56.4167110051       18.3456941117  TIP3      5141            0.0000000000
     32774      5278  TIP3      OH2             8.4465505927       57.4673089508       21.7452408638  TIP3      5142            0.0000000000
     32775      5278  TIP3      H1              8.1992535738       57.1780807664       20.8422524051  TIP3      5142            0.0000000000
     32776      5278  TIP3      H2              7.9966101911       58.3273036600       21.8077369485  TIP3      5142            0.0000000000
     32777      5279  TIP3      OH2            18.3691909850       65.9129589869        9.2304746284  TIP3      5143            0.0000000000
     32778      5279  TIP3      H1             17.7300511732       65.1798915918        9.1857403388  TIP3      5143            0.0000000000
     32779      5279  TIP3      H2             18.8695156774       65.6500420843       10.0377846152  TIP3      5143            0.0000000000
     32780      5280  TIP3      OH2            18.8093112273       65.2956090807        5.3633369586  TIP3      5144            0.0000000000
     32781      5280  TIP3      H1             18.0133430956       65.7060320391        5.7705993043  TIP3      5144            0.0000000000
     32782      5280  TIP3      H2             19.4961586082       65.7976713569        5.8473094916  TIP3      5144            0.0000000000
     32783      5281  TIP3      OH2            16.5413993825       62.7129849017        4.3069060051  TIP3      5145            0.0000000000
     32784      5281  TIP3      H1             16.7030196308       62.7408612111        3.3528355258  TIP3      5145            0.0000000000
     32785      5281  TIP3      H2             16.4097181711       61.7706668965        4.4671311631  TIP3      5145            0.0000000000
     32786      5282  TIP3      OH2            16.7177950583       63.8883910484       10.1905837512  TIP3      5146            0.0000000000
     32787      5282  TIP3      H1             16.5449919278       62.9702547274        9.9082332345  TIP3      5146            0.0000000000
     32788      5282  TIP3      H2             16.2050522651       63.9222554234       11.0290001197  TIP3      5146            0.0000000000
     32789      5283  TIP3      OH2            16.6240734651       65.6909606190       20.6424154644  TIP3      5147            0.0000000000
     32790      5283  TIP3      H1             17.2607445956       64.9704392576       20.4889488390  TIP3      5147            0.0000000000
     32791      5283  TIP3      H2             17.1482910344       66.4772445639       20.3830946466  TIP3      5147            0.0000000000
     32792      5284  TIP3      OH2            18.5742816513       63.5064269943       20.0901362930  TIP3      5148            0.0000000000
     32793      5284  TIP3      H1             17.8250289214       62.9942902138       19.7222299792  TIP3      5148            0.0000000000
     32794      5284  TIP3      H2             19.3162724540       62.9037181975       19.9087488363  TIP3      5148            0.0000000000
     32795      5285  TIP3      OH2            15.6957801568       61.6780952123        8.9994086591  TIP3      5149            0.0000000000
     32796      5285  TIP3      H1             15.9589877925       60.7944754909        9.2812273267  TIP3      5149            0.0000000000
     32797      5285  TIP3      H2             16.2813562099       61.9091477895        8.2527490531  TIP3      5149            0.0000000000
     32798      5286  TIP3      OH2            16.7764162703       62.2907078063       13.7333799380  TIP3      5150            0.0000000000
     32799      5286  TIP3      H1             17.7564992691       62.3334908829       13.8719308829  TIP3      5150            0.0000000000
     32800      5286  TIP3      H2             16.4739961918       62.3212948822       14.6614654723  TIP3      5150            0.0000000000
     32801      5287  TIP3      OH2            16.2279131553       62.8828078545       16.3215997081  TIP3      5151            0.0000000000
     32802      5287  TIP3      H1             15.4521761330       63.4707439866       16.2734944033  TIP3      5151            0.0000000000
     32803      5287  TIP3      H2             16.9603721401       63.5231211025       16.1402962759  TIP3      5151            0.0000000000
     32804      5288  TIP3      OH2             1.3526664958       61.4591637985       19.4075301254  TIP3      5152            0.0000000000
     32805      5288  TIP3      H1              1.9993543157       61.4680333156       20.1283193296  TIP3      5152            0.0000000000
     32806      5288  TIP3      H2              0.5107583722       61.4290926520       19.8942852484  TIP3      5152            0.0000000000
     32807      5289  TIP3      OH2            16.5968313905       58.3220916336        8.3949239627  TIP3      5153            0.0000000000
     32808      5289  TIP3      H1             16.9122324777       58.4513853409        9.3197724715  TIP3      5153            0.0000000000
     32809      5289  TIP3      H2             16.2106679746       59.1612819381        8.1426422214  TIP3      5153            0.0000000000
     32810      5290  TIP3      OH2             1.7892559588       59.9476332367       13.3386264605  TIP3      5154            0.0000000000
     32811      5290  TIP3      H1              2.0217902406       58.9918922704       13.3211523439  TIP3      5154            0.0000000000
     32812      5290  TIP3      H2              2.6461394957       60.3462935862       13.5934534710  TIP3      5154            0.0000000000
     32813      5291  TIP3      OH2             0.5860134660       62.9499804726       14.6462120586  TIP3      5155            0.0000000000
     32814      5291  TIP3      H1              1.2501548245       62.2994433232       14.3717819552  TIP3      5155            0.0000000000
     32815      5291  TIP3      H2              1.0018086035       63.7790964967       14.3621530108  TIP3      5155            0.0000000000
     32816      5292  TIP3      OH2            18.8340696284       59.9235937238       20.0677764221  TIP3      5156            0.0000000000
     32817      5292  TIP3      H1             18.6019753076       59.9652823050       21.0144901437  TIP3      5156            0.0000000000
     32818      5292  TIP3      H2             18.2000248975       59.2688042199       19.7300266934  TIP3      5156            0.0000000000
     32819      5293  TIP3      OH2            18.4012089967       58.9576565905        4.8803562907  TIP3      5157            0.0000000000
     32820      5293  TIP3      H1             19.1917662593       58.4070587983        5.0506734323  TIP3      5157            0.0000000000
     32821      5293  TIP3      H2             18.7783565696       59.8528458933        4.9588854849  TIP3      5157            0.0000000000
     32822      5294  TIP3      OH2             0.8337145073       58.5150139867        7.7862302230  TIP3      5158            0.0000000000
     32823      5294  TIP3      H1              0.9101467435       58.7685820450        8.7295746832  TIP3      5158            0.0000000000
     32824      5294  TIP3      H2              1.0940624376       59.3420392529        7.3088651201  TIP3      5158            0.0000000000
     32825      5295  TIP3      OH2             0.4876458876       57.5329361444       16.3145779777  TIP3      5159            0.0000000000
     32826      5295  TIP3      H1             -0.4075608701       57.1909387297       16.5532059092  TIP3      5159            0.0000000000
     32827      5295  TIP3      H2              0.2491147507       58.4106634942       15.9774281222  TIP3      5159            0.0000000000
     32828      5296  TIP3      OH2            16.9111008702       56.5357301073       17.9883166532  TIP3      5160            0.0000000000
     32829      5296  TIP3      H1             16.0525990437       56.7567730206       17.6162106968  TIP3      5160            0.0000000000
     32830      5296  TIP3      H2             17.1190093252       55.6359099804       17.6341732211  TIP3      5160            0.0000000000
     32831      5297  TIP3      OH2            10.1106201421       58.4111763396       11.6881662295  TIP3      5161            0.0000000000
     32832      5297  TIP3      H1              9.3110730638       58.0571182744       12.1322701442  TIP3      5161            0.0000000000
     32833      5297  TIP3      H2             10.6171135898       57.5891232006       11.6033720629  TIP3      5161            0.0000000000
     32834      5298  TIP3      OH2            15.8360559751       56.7338604534       12.2483377138  TIP3      5162            0.0000000000
     32835      5298  TIP3      H1             16.5557063177       57.2634175110       11.8376812491  TIP3      5162            0.0000000000
     32836      5298  TIP3      H2             15.0461195603       57.1471327876       11.8359385237  TIP3      5162            0.0000000000
     32837      5299  TIP3      OH2            17.7426443697       58.0065480144       10.7799021484  TIP3      5163            0.0000000000
     32838      5299  TIP3      H1             18.3275947251       57.3414662044       10.3446016047  TIP3      5163            0.0000000000
     32839      5299  TIP3      H2             18.3917351658       58.7153394678       11.0175683797  TIP3      5163            0.0000000000
     32840      5300  TIP3      OH2             3.4450313660       56.9638869177       10.3850922014  TIP3      5164            0.0000000000
     32841      5300  TIP3      H1              2.6265188060       56.8925917952        9.8573587446  TIP3      5164            0.0000000000
     32842      5300  TIP3      H2              3.9054140433       56.1060339132       10.2287133059  TIP3      5164            0.0000000000
     32843      5301  TIP3      OH2             1.4570082774       56.7282663310        5.9063262270  TIP3      5165            0.0000000000
     32844      5301  TIP3      H1              2.2296374723       57.2696700750        5.6361356669  TIP3      5165            0.0000000000
     32845      5301  TIP3      H2              1.1179576794       57.2812207372        6.6451562682  TIP3      5165            0.0000000000
     32846      5302  TIP3      OH2             7.4667230429       56.5859572321        9.9545412805  TIP3      5166            0.0000000000
     32847      5302  TIP3      H1              8.3398078898       56.7678743419        9.5907804923  TIP3      5166            0.0000000000
     32848      5302  TIP3      H2              7.5535446304       56.8929413320       10.8753896232  TIP3      5166            0.0000000000
     32849      5303  TIP3      OH2            13.4038125908       57.0471354544       10.6878985940  TIP3      5167            0.0000000000
     32850      5303  TIP3      H1             12.6389066240       57.4965152971       10.3128391981  TIP3      5167            0.0000000000
     32851      5303  TIP3      H2             12.9989887685       56.2779003879       11.1632581882  TIP3      5167            0.0000000000
     32852      5304  TIP3      OH2            13.7591127237       58.0171093572        6.7970202495  TIP3      5168            0.0000000000
     32853      5304  TIP3      H1             13.3200080685       58.5946161069        6.1388582584  TIP3      5168            0.0000000000
     32854      5304  TIP3      H2             13.4153839451       58.4575324444        7.5989310142  TIP3      5168            0.0000000000
     32855      5305  TIP3      OH2             3.4142802278       58.2118658928        4.5160686692  TIP3      5169            0.0000000000
     32856      5305  TIP3      H1              3.7750518484       58.3198798477        3.6255874762  TIP3      5169            0.0000000000
     32857      5305  TIP3      H2              4.1762907095       58.5027689292        5.0537819697  TIP3      5169            0.0000000000
     32858      5306  TIP3      OH2             9.0175275981       59.1315966872        6.9755640727  TIP3      5170            0.0000000000
     32859      5306  TIP3      H1              9.5915485382       58.7299103643        7.6559575463  TIP3      5170            0.0000000000
     32860      5306  TIP3      H2              9.0340451571       60.0496975130        7.3082311263  TIP3      5170            0.0000000000
     32861      5307  TIP3      OH2             3.0409469502       57.6339066408       19.2863109407  TIP3      5171            0.0000000000
     32862      5307  TIP3      H1              2.3797930057       57.0149405984       19.6457744217  TIP3      5171            0.0000000000
     32863      5307  TIP3      H2              3.8238194577       57.3398558591       19.7938047023  TIP3      5171            0.0000000000
     32864      5308  TIP3      OH2             4.9792461531       57.0229056208       21.1785648844  TIP3      5172            0.0000000000
     32865      5308  TIP3      H1              5.7769931873       56.9197095876       20.6313446363  TIP3      5172            0.0000000000
     32866      5308  TIP3      H2              5.0395502632       56.1786363391       21.6619541949  TIP3      5172            0.0000000000
     32867      5309  TIP3      OH2            30.4945632207       65.4005446408       12.6556728436  TIP3      5173            0.0000000000
     32868      5309  TIP3      H1             31.1177369594       65.0835853917       13.3333833597  TIP3      5173            0.0000000000
     32869      5309  TIP3      H2             29.7866536187       64.7389703825       12.7183527583  TIP3      5173            0.0000000000
     32870      5310  TIP3      OH2            21.9411683012       65.4420481475       14.4632205685  TIP3      5174            0.0000000000
     32871      5310  TIP3      H1             22.1186425488       64.5990679238       14.9117856350  TIP3      5174            0.0000000000
     32872      5310  TIP3      H2             22.2825560784       66.0777609956       15.1035168706  TIP3      5174            0.0000000000
     32873      5311  TIP3      OH2            19.8210799887       63.0277978771        8.9486548547  TIP3      5175            0.0000000000
     32874      5311  TIP3      H1             19.8846974579       63.7878136156        9.5736177687  TIP3      5175            0.0000000000
     32875      5311  TIP3      H2             18.8574062118       62.9153807837        8.9440514590  TIP3      5175            0.0000000000
     32876      5312  TIP3      OH2            20.4281809569       64.9763506752       10.7038170802  TIP3      5176            0.0000000000
     32877      5312  TIP3      H1             20.6797627919       64.4130796248       11.4743147697  TIP3      5176            0.0000000000
     32878      5312  TIP3      H2             21.2493230016       65.4578708354       10.5357057189  TIP3      5176            0.0000000000
     32879      5313  TIP3      OH2            36.5357987747       59.7707341767       14.2456237872  TIP3      5177            0.0000000000
     32880      5313  TIP3      H1             36.4540236588       60.3663238135       15.0184239329  TIP3      5177            0.0000000000
     32881      5313  TIP3      H2             37.5091312398       59.7126438117       14.2033879528  TIP3      5177            0.0000000000
     32882      5314  TIP3      OH2            31.4976880927       62.7242253923       14.2415285918  TIP3      5178            0.0000000000
     32883      5314  TIP3      H1             31.6160386867       61.7652682735       14.4151517721  TIP3      5178            0.0000000000
     32884      5314  TIP3      H2             31.1967877647       62.6971625510       13.3022242585  TIP3      5178            0.0000000000
     32885      5315  TIP3      OH2            24.2817126234       59.9220024839       11.4883569873  TIP3      5179            0.0000000000
     32886      5315  TIP3      H1             24.7871929877       60.6344539941       11.0467716380  TIP3      5179            0.0000000000
     32887      5315  TIP3      H2             24.2141666624       59.2875726759       10.7644303303  TIP3      5179            0.0000000000
     32888      5316  TIP3      OH2            32.1454861690       60.4990627053       10.2209318850  TIP3      5180            0.0000000000
     32889      5316  TIP3      H1             32.5831097685       60.0633796187       10.9758462357  TIP3      5180            0.0000000000
     32890      5316  TIP3      H2             32.7185318360       61.2729933085       10.1024774398  TIP3      5180            0.0000000000
     32891      5317  TIP3      OH2            21.0909900151       62.8130737493       12.0813517763  TIP3      5181            0.0000000000
     32892      5317  TIP3      H1             21.6811021474       62.3106397908       12.6725924097  TIP3      5181            0.0000000000
     32893      5317  TIP3      H2             21.3830325276       62.4302041570       11.2320784568  TIP3      5181            0.0000000000
     32894      5318  TIP3      OH2            26.3578953424       64.5885454925       11.6085536612  TIP3      5182            0.0000000000
     32895      5318  TIP3      H1             27.0513041015       63.9337136836       11.8310847933  TIP3      5182            0.0000000000
     32896      5318  TIP3      H2             25.7573011372       64.0020732153       11.1209926032  TIP3      5182            0.0000000000
     32897      5319  TIP3      OH2            36.7113330026       61.0966658545       16.7261653983  TIP3      5183            0.0000000000
     32898      5319  TIP3      H1             36.1556331754       61.8527367630       16.4223906343  TIP3      5183            0.0000000000
     32899      5319  TIP3      H2             37.0707883888       61.4662025769       17.5549845410  TIP3      5183            0.0000000000
     32900      5320  TIP3      OH2            23.7741115763       59.6177368363       15.6482035527  TIP3      5184            0.0000000000
     32901      5320  TIP3      H1             23.3670776388       60.1412916145       14.9260347748  TIP3      5184            0.0000000000
     32902      5320  TIP3      H2             23.0100924696       59.5992934585       16.2664729380  TIP3      5184            0.0000000000
     32903      5321  TIP3      OH2            34.2772656351       60.5322822716       12.5218078229  TIP3      5185            0.0000000000
     32904      5321  TIP3      H1             35.0251667067       59.9226071039       12.5648693802  TIP3      5185            0.0000000000
     32905      5321  TIP3      H2             34.6693712092       61.2617208500       13.0550530251  TIP3      5185            0.0000000000
     32906      5322  TIP3      OH2            23.0230952582       61.2915864127       13.5767937176  TIP3      5186            0.0000000000
     32907      5322  TIP3      H1             23.6838862999       61.8703962652       14.0305221344  TIP3      5186            0.0000000000
     32908      5322  TIP3      H2             23.5010582111       61.0588870123       12.7480548246  TIP3      5186            0.0000000000
     32909      5323  TIP3      OH2            33.9818884551       58.8525935017       15.1099787060  TIP3      5187            0.0000000000
     32910      5323  TIP3      H1             33.5351447158       59.0346923959       14.2666242406  TIP3      5187            0.0000000000
     32911      5323  TIP3      H2             34.8611436848       59.2415389240       14.9476748435  TIP3      5187            0.0000000000
     32912      5324  TIP3      OH2            26.7477985172       56.6045708475       13.1787917485  TIP3      5188            0.0000000000
     32913      5324  TIP3      H1             26.4190464206       55.6862917614       13.2879240335  TIP3      5188            0.0000000000
     32914      5324  TIP3      H2             25.9312292176       57.1195561016       13.3902116600  TIP3      5188            0.0000000000
     32915      5325  TIP3      OH2            29.3597715628       65.2854492349        7.4661417687  TIP3      5189            0.0000000000
     32916      5325  TIP3      H1             29.2140621270       66.1530808088        7.8910705339  TIP3      5189            0.0000000000
     32917      5325  TIP3      H2             30.2006446546       65.4351891341        6.9852096061  TIP3      5189            0.0000000000
     32918      5326  TIP3      OH2            30.0876064053       64.4482761255        4.1806327663  TIP3      5190            0.0000000000
     32919      5326  TIP3      H1             30.6562306968       64.9812490502        4.7716801473  TIP3      5190            0.0000000000
     32920      5326  TIP3      H2             30.0288551896       63.6093974238        4.6589887336  TIP3      5190            0.0000000000
     32921      5327  TIP3      OH2            36.7790514718       64.9574140587       16.0447867144  TIP3      5191            0.0000000000
     32922      5327  TIP3      H1             37.2895644627       65.8037227075       15.9678733284  TIP3      5191            0.0000000000
     32923      5327  TIP3      H2             36.8808273106       64.6126403513       15.1400704253  TIP3      5191            0.0000000000
     32924      5328  TIP3      OH2            33.2479709272       65.1731345868        8.8661447250  TIP3      5192            0.0000000000
     32925      5328  TIP3      H1             32.7831044366       65.3693252779        9.7094696386  TIP3      5192            0.0000000000
     32926      5328  TIP3      H2             34.1557996062       64.9865837114        9.1797772384  TIP3      5192            0.0000000000
     32927      5329  TIP3      OH2            32.9420497775       64.3672146889       17.2324523588  TIP3      5193            0.0000000000
     32928      5329  TIP3      H1             32.9686747613       65.1302869620       17.8413469610  TIP3      5193            0.0000000000
     32929      5329  TIP3      H2             32.0615806038       64.4847210004       16.8213807905  TIP3      5193            0.0000000000
     32930      5330  TIP3      OH2            25.1914649946       64.8892541388       14.1025873599  TIP3      5194            0.0000000000
     32931      5330  TIP3      H1             25.5080526459       64.5966052005       13.2212073242  TIP3      5194            0.0000000000
     32932      5330  TIP3      H2             25.1662955833       65.8521884596       13.9200473256  TIP3      5194            0.0000000000
     32933      5331  TIP3      OH2            31.8426857856       65.1062168762        6.4784666678  TIP3      5195            0.0000000000
     32934      5331  TIP3      H1             32.3674028274       65.0856762825        7.3063481543  TIP3      5195            0.0000000000
     32935      5331  TIP3      H2             32.4891235650       65.5261346318        5.8566043490  TIP3      5195            0.0000000000
     32936      5332  TIP3      OH2            23.7471842081       65.7254796909       17.9779039882  TIP3      5196            0.0000000000
     32937      5332  TIP3      H1             24.0463954347       66.1175595548       18.8240081180  TIP3      5196            0.0000000000
     32938      5332  TIP3      H2             22.8112657428       65.9615948783       17.9972760435  TIP3      5196            0.0000000000
     32939      5333  TIP3      OH2            35.9526695679       57.1481100014        6.6151329978  TIP3      5197            0.0000000000
     32940      5333  TIP3      H1             35.0086312464       57.2244174854        6.8648650297  TIP3      5197            0.0000000000
     32941      5333  TIP3      H2             36.0261147496       57.8669549741        5.9623003630  TIP3      5197            0.0000000000
     32942      5334  TIP3      OH2            23.4741032850       65.1411174500        8.6358765801  TIP3      5198            0.0000000000
     32943      5334  TIP3      H1             24.3356292795       65.5401162012        8.4222796121  TIP3      5198            0.0000000000
     32944      5334  TIP3      H2             23.1464312449       64.7988224574        7.7899513936  TIP3      5198            0.0000000000
     32945      5335  TIP3      OH2            34.9038501241       62.4471404379       19.6690955164  TIP3      5199            0.0000000000
     32946      5335  TIP3      H1             34.1062754392       62.6965445724       19.1623750141  TIP3      5199            0.0000000000
     32947      5335  TIP3      H2             34.5568835223       61.6200788847       20.0460523710  TIP3      5199            0.0000000000
     32948      5336  TIP3      OH2            24.4945175989       57.8599378709       13.7931671405  TIP3      5200            0.0000000000
     32949      5336  TIP3      H1             24.1841098063       58.5163224704       13.1436725769  TIP3      5200            0.0000000000
     32950      5336  TIP3      H2             24.4320412609       58.4134927203       14.6031933204  TIP3      5200            0.0000000000
     32951      5337  TIP3      OH2            29.3859336087       57.0638301462       17.0203043459  TIP3      5201            0.0000000000
     32952      5337  TIP3      H1             29.7467698441       57.0131707863       17.9271231371  TIP3      5201            0.0000000000
     32953      5337  TIP3      H2             28.4189879947       57.1664007258       17.1740340694  TIP3      5201            0.0000000000
     32954      5338  TIP3      OH2            32.5198344423       61.7298495922       18.7400647074  TIP3      5202            0.0000000000
     32955      5338  TIP3      H1             31.7219397829       61.2307677505       19.0110302816  TIP3      5202            0.0000000000
     32956      5338  TIP3      H2             32.1780834454       62.5817744020       18.4271943834  TIP3      5202            0.0000000000
     32957      5339  TIP3      OH2            33.2407565224       65.8564891618        4.4146566097  TIP3      5203            0.0000000000
     32958      5339  TIP3      H1             33.6573679043       65.4396710696        3.6539202151  TIP3      5203            0.0000000000
     32959      5339  TIP3      H2             33.9873665783       66.4134819391        4.7524679148  TIP3      5203            0.0000000000
     32960      5340  TIP3      OH2            28.8351090080       59.7066589332        4.8163964097  TIP3      5204            0.0000000000
     32961      5340  TIP3      H1             29.0089991672       60.0257460615        5.7214069417  TIP3      5204            0.0000000000
     32962      5340  TIP3      H2             29.7305241047       59.4503139353        4.5418178020  TIP3      5204            0.0000000000
     32963      5341  TIP3      OH2            24.8441241178       62.4558038993       15.1295878548  TIP3      5205            0.0000000000
     32964      5341  TIP3      H1             24.1317369316       62.6253239375       15.7766546280  TIP3      5205            0.0000000000
     32965      5341  TIP3      H2             24.9832525571       63.3657819104       14.7882510774  TIP3      5205            0.0000000000
     32966      5342  TIP3      OH2            24.8041828847       62.4279860652       10.3209789353  TIP3      5206            0.0000000000
     32967      5342  TIP3      H1             23.8724672605       62.2625368942       10.0317932888  TIP3      5206            0.0000000000
     32968      5342  TIP3      H2             25.2101042045       62.7224707295        9.5013622586  TIP3      5206            0.0000000000
     32969      5343  TIP3      OH2            30.4313261192       63.5128833433        9.1700760302  TIP3      5207            0.0000000000
     32970      5343  TIP3      H1             29.9606298441       64.1491263541        8.5739745230  TIP3      5207            0.0000000000
     32971      5343  TIP3      H2             31.1616745523       63.2171183091        8.6115863877  TIP3      5207            0.0000000000
     32972      5344  TIP3      OH2            29.0131980251       63.8692917701       20.0810685519  TIP3      5208            0.0000000000
     32973      5344  TIP3      H1             28.7101140580       63.2483955482       20.7697715018  TIP3      5208            0.0000000000
     32974      5344  TIP3      H2             29.9524683576       63.9349708305       20.3432445101  TIP3      5208            0.0000000000
     32975      5345  TIP3      OH2            30.6076185419       62.4865858154       11.7328725971  TIP3      5209            0.0000000000
     32976      5345  TIP3      H1             30.5698800315       62.9731962880       10.8809823405  TIP3      5209            0.0000000000
     32977      5345  TIP3      H2             30.9681339680       61.6346151884       11.4341252031  TIP3      5209            0.0000000000
     32978      5346  TIP3      OH2            22.2098800395       62.7739240812       16.2120228971  TIP3      5210            0.0000000000
     32979      5346  TIP3      H1             22.4640704484       62.9519694181       17.1356053804  TIP3      5210            0.0000000000
     32980      5346  TIP3      H2             21.8612331035       61.8569119152       16.2624565937  TIP3      5210            0.0000000000
     32981      5347  TIP3      OH2            25.6732391993       60.8985214333        3.7823194449  TIP3      5211            0.0000000000
     32982      5347  TIP3      H1             24.7801374689       60.7350266843        4.1406739366  TIP3      5211            0.0000000000
     32983      5347  TIP3      H2             25.5819039662       61.8498889195        3.5909559718  TIP3      5211            0.0000000000
     32984      5348  TIP3      OH2            19.4204176220       59.9481773684       11.5397005439  TIP3      5212            0.0000000000
     32985      5348  TIP3      H1             19.9520597123       59.9151020241       12.3725610454  TIP3      5212            0.0000000000
     32986      5348  TIP3      H2             20.0500246601       60.1533778302       10.8455414103  TIP3      5212            0.0000000000
     32987      5349  TIP3      OH2            20.0349506412       60.9951421294        6.1071226076  TIP3      5213            0.0000000000
     32988      5349  TIP3      H1             20.8421695640       61.3872197969        5.7223925180  TIP3      5213            0.0000000000
     32989      5349  TIP3      H2             19.7872007907       61.6383298074        6.7918282469  TIP3      5213            0.0000000000
     32990      5350  TIP3      OH2            30.4135517789       64.2329765753       16.1175168685  TIP3      5214            0.0000000000
     32991      5350  TIP3      H1             30.7786153778       63.7754722274       15.3206135715  TIP3      5214            0.0000000000
     32992      5350  TIP3      H2             30.0242984392       63.4593599535       16.5850429985  TIP3      5214            0.0000000000
     32993      5351  TIP3      OH2            27.7677621793       60.1460264256       11.1992588548  TIP3      5215            0.0000000000
     32994      5351  TIP3      H1             27.5187138195       60.7939467408       11.8702156604  TIP3      5215            0.0000000000
     32995      5351  TIP3      H2             28.1125138804       59.3918867064       11.7228020439  TIP3      5215            0.0000000000
     32996      5352  TIP3      OH2            22.3026176740       61.7388129281        9.7568029875  TIP3      5216            0.0000000000
     32997      5352  TIP3      H1             21.6311179479       62.1419652600        9.1569769244  TIP3      5216            0.0000000000
     32998      5352  TIP3      H2             22.2606806076       60.7932290856        9.5388726697  TIP3      5216            0.0000000000
     32999      5353  TIP3      OH2            25.8881433437       61.7931108877        7.1619661179  TIP3      5217            0.0000000000
     33000      5353  TIP3      H1             26.6022109351       62.2352680347        7.6532320013  TIP3      5217            0.0000000000
     33001      5353  TIP3      H2             25.5639374863       62.4913722900        6.5762172911  TIP3      5217            0.0000000000
     33002      5354  TIP3      OH2            31.5039579918       59.7140494960       13.7683103056  TIP3      5218            0.0000000000
     33003      5354  TIP3      H1             31.3234394804       59.3164609485       14.6494936114  TIP3      5218            0.0000000000
     33004      5354  TIP3      H2             31.4849265752       58.9652894666       13.1519923570  TIP3      5218            0.0000000000
     33005      5355  TIP3      OH2            24.5168244112       63.5517505976        4.3960285357  TIP3      5219            0.0000000000
     33006      5355  TIP3      H1             23.7893833448       63.6495001690        3.7524400323  TIP3      5219            0.0000000000
     33007      5355  TIP3      H2             25.2960496958       63.8326162877        3.8707843996  TIP3      5219            0.0000000000
     33008      5356  TIP3      OH2            28.0626553202       62.5440816092       12.6430221711  TIP3      5220            0.0000000000
     33009      5356  TIP3      H1             28.9968778816       62.3081198843       12.4398905219  TIP3      5220            0.0000000000
     33010      5356  TIP3      H2             27.9088612010       62.1106704760       13.5096500633  TIP3      5220            0.0000000000
     33011      5357  TIP3      OH2            23.3647279210       58.3971089862        8.7231486132  TIP3      5221            0.0000000000
     33012      5357  TIP3      H1             22.7090704769       58.1553854066        9.4180468460  TIP3      5221            0.0000000000
     33013      5357  TIP3      H2             23.8335691267       57.5527647433        8.6715400603  TIP3      5221            0.0000000000
     33014      5358  TIP3      OH2            27.6974477773       61.3802350024       15.3596535970  TIP3      5222            0.0000000000
     33015      5358  TIP3      H1             26.9073767986       61.9285699185       15.5041006181  TIP3      5222            0.0000000000
     33016      5358  TIP3      H2             28.3094972427       61.7481550449       16.0301168581  TIP3      5222            0.0000000000
     33017      5359  TIP3      OH2            31.4435239194       60.4334499446        5.3298471157  TIP3      5223            0.0000000000
     33018      5359  TIP3      H1             31.0549138356       61.2888459127        5.1329098565  TIP3      5223            0.0000000000
     33019      5359  TIP3      H2             32.3242564034       60.7137575515        5.6154585005  TIP3      5223            0.0000000000
     33020      5360  TIP3      OH2            32.8480414637       62.3035079208        6.9459176580  TIP3      5224            0.0000000000
     33021      5360  TIP3      H1             33.4425739199       62.5021891777        7.6940415193  TIP3      5224            0.0000000000
     33022      5360  TIP3      H2             32.6769196782       63.1937323118        6.6121497223  TIP3      5224            0.0000000000
     33023      5361  TIP3      OH2            20.0503660325       65.4759381027       18.1448831197  TIP3      5225            0.0000000000
     33024      5361  TIP3      H1             20.4174432746       64.7992345335       18.7392096411  TIP3      5225            0.0000000000
     33025      5361  TIP3      H2             19.1587669878       65.1263154416       17.9886139445  TIP3      5225            0.0000000000
     33026      5362  TIP3      OH2            26.2988542196       64.6535867703       20.1639616534  TIP3      5226            0.0000000000
     33027      5362  TIP3      H1             26.4156966655       64.1467223730       19.3331859964  TIP3      5226            0.0000000000
     33028      5362  TIP3      H2             27.1346889981       64.5097426725       20.6259826293  TIP3      5226            0.0000000000
     33029      5363  TIP3      OH2            36.6974851064       63.0660907709        7.2730070116  TIP3      5227            0.0000000000
     33030      5363  TIP3      H1             36.7443722470       62.4272946289        6.5423395178  TIP3      5227            0.0000000000
     33031      5363  TIP3      H2             36.9384660614       63.8887461123        6.8074201212  TIP3      5227            0.0000000000
     33032      5364  TIP3      OH2            21.1484095559       64.2545201664        4.4333043705  TIP3      5228            0.0000000000
     33033      5364  TIP3      H1             21.3362345314       65.1953210606        4.5477469400  TIP3      5228            0.0000000000
     33034      5364  TIP3      H2             20.1709493839       64.3079100933        4.3618214657  TIP3      5228            0.0000000000
     33035      5365  TIP3      OH2            21.6147528279       60.1655474511       17.2684478302  TIP3      5229            0.0000000000
     33036      5365  TIP3      H1             21.2720397835       60.8592253137       17.8793162288  TIP3      5229            0.0000000000
     33037      5365  TIP3      H2             21.3130084500       59.3918831473       17.7729249394  TIP3      5229            0.0000000000
     33038      5366  TIP3      OH2            31.0526121811       59.1173607819       16.4951773231  TIP3      5230            0.0000000000
     33039      5366  TIP3      H1             31.2048488005       59.3952648511       17.4088889894  TIP3      5230            0.0000000000
     33040      5366  TIP3      H2             30.4918313506       58.3238077281       16.6183573896  TIP3      5230            0.0000000000
     33041      5367  TIP3      OH2            30.8860216559       59.4989952647        7.9100720564  TIP3      5231            0.0000000000
     33042      5367  TIP3      H1             31.0504397630       60.1480479506        7.2112382251  TIP3      5231            0.0000000000
     33043      5367  TIP3      H2             31.2801498626       59.9538927278        8.6836805716  TIP3      5231            0.0000000000
     33044      5368  TIP3      OH2            28.3642918045       61.6942613222        9.0854127604  TIP3      5232            0.0000000000
     33045      5368  TIP3      H1             29.1094813459       62.2673028861        9.3811678262  TIP3      5232            0.0000000000
     33046      5368  TIP3      H2             28.1770233484       61.1440985280        9.8827508904  TIP3      5232            0.0000000000
     33047      5369  TIP3      OH2            29.2850690285       62.1911592529       17.5784306672  TIP3      5233            0.0000000000
     33048      5369  TIP3      H1             29.1117863758       62.6291492196       18.4355728343  TIP3      5233            0.0000000000
     33049      5369  TIP3      H2             29.6094788804       61.3158264268       17.8509734439  TIP3      5233            0.0000000000
     33050      5370  TIP3      OH2            29.3067189133       57.8399218568        9.3343608586  TIP3      5234            0.0000000000
     33051      5370  TIP3      H1             29.1548664710       57.9825941975       10.2867107846  TIP3      5234            0.0000000000
     33052      5370  TIP3      H2             29.9423840124       58.5557424903        9.1256363709  TIP3      5234            0.0000000000
     33053      5371  TIP3      OH2            24.2978044944       59.5348478077        6.3423542634  TIP3      5235            0.0000000000
     33054      5371  TIP3      H1             24.4790340516       60.4257064789        6.7088299004  TIP3      5235            0.0000000000
     33055      5371  TIP3      H2             24.2111880680       59.0276942821        7.1793366009  TIP3      5235            0.0000000000
     33056      5372  TIP3      OH2            34.9187566520       59.6821743250       18.2163925460  TIP3      5236            0.0000000000
     33057      5372  TIP3      H1             34.1043460350       60.2105023219       18.1308012199  TIP3      5236            0.0000000000
     33058      5372  TIP3      H2             35.4424570810       60.1216594659       17.5095215979  TIP3      5236            0.0000000000
     33059      5373  TIP3      OH2            33.7574844879       63.7731547728       12.2469797034  TIP3      5237            0.0000000000
     33060      5373  TIP3      H1             33.1402445724       63.3151768132       12.8358673421  TIP3      5237            0.0000000000
     33061      5373  TIP3      H2             34.5908283203       63.3377235404       12.5331790276  TIP3      5237            0.0000000000
     33062      5374  TIP3      OH2            22.3314188912       61.7281328859        3.8312024685  TIP3      5238            0.0000000000
     33063      5374  TIP3      H1             22.0732867865       62.6337934595        4.1381477692  TIP3      5238            0.0000000000
     33064      5374  TIP3      H2             21.4862590363       61.3986650887        3.4968786375  TIP3      5238            0.0000000000
     33065      5375  TIP3      OH2            21.6851373167       57.3724962336       13.4095979857  TIP3      5239            0.0000000000
     33066      5375  TIP3      H1             21.9672377053       57.2569054370       12.4800477388  TIP3      5239            0.0000000000
     33067      5375  TIP3      H2             21.5532271127       56.4408100840       13.6795172753  TIP3      5239            0.0000000000
     33068      5376  TIP3      OH2            21.5868528699       64.6990946751       20.4068718082  TIP3      5240            0.0000000000
     33069      5376  TIP3      H1             21.6152039025       63.7636129853       20.6517862960  TIP3      5240            0.0000000000
     33070      5376  TIP3      H2             20.9187978326       64.9925505843       21.0417869584  TIP3      5240            0.0000000000
     33071      5377  TIP3      OH2            26.0424554353       66.0234126301        5.6736937897  TIP3      5241            0.0000000000
     33072      5377  TIP3      H1             25.3013994450       65.5163984637        5.3230389833  TIP3      5241            0.0000000000
     33073      5377  TIP3      H2             26.7752127042       65.5805253518        5.2205124404  TIP3      5241            0.0000000000
     33074      5378  TIP3      OH2            25.4280828828       63.5661606096       17.8894184955  TIP3      5242            0.0000000000
     33075      5378  TIP3      H1             24.8119337616       64.3305854709       17.8736184147  TIP3      5242            0.0000000000
     33076      5378  TIP3      H2             26.1449036998       63.8947975134       17.2964335123  TIP3      5242            0.0000000000
     33077      5379  TIP3      OH2            27.1528165587       64.3042818600        3.7083236637  TIP3      5243            0.0000000000
     33078      5379  TIP3      H1             27.1627907304       64.1937114636        2.7397173648  TIP3      5243            0.0000000000
     33079      5379  TIP3      H2             28.1126464384       64.3487130293        3.9112624677  TIP3      5243            0.0000000000
     33080      5380  TIP3      OH2            26.0875604834       61.2982918867       19.0620635385  TIP3      5244            0.0000000000
     33081      5380  TIP3      H1             25.9079722162       60.5858408772       18.3947765873  TIP3      5244            0.0000000000
     33082      5380  TIP3      H2             25.8336673688       62.1106715817       18.5602288569  TIP3      5244            0.0000000000
     33083      5381  TIP3      OH2            26.0895097658       59.6753113708       16.9402207151  TIP3      5245            0.0000000000
     33084      5381  TIP3      H1             26.7553534263       60.1707286424       16.4167474460  TIP3      5245            0.0000000000
     33085      5381  TIP3      H2             25.3067456511       59.7534130379       16.3480753261  TIP3      5245            0.0000000000
     33086      5382  TIP3      OH2            27.6178002195       64.4823300006       16.6438752414  TIP3      5246            0.0000000000
     33087      5382  TIP3      H1             28.5587814664       64.4417840183       16.4093906910  TIP3      5246            0.0000000000
     33088      5382  TIP3      H2             27.4770966601       65.4500342239       16.6834280559  TIP3      5246            0.0000000000
     33089      5383  TIP3      OH2            31.3478676958       63.3263948771       21.1998859969  TIP3      5247            0.0000000000
     33090      5383  TIP3      H1             31.3084338002       62.3575611670       21.1887158767  TIP3      5247            0.0000000000
     33091      5383  TIP3      H2             31.8046675007       63.4900294059       22.0424113561  TIP3      5247            0.0000000000
     33092      5384  TIP3      OH2            33.1384344131        0.1427010458       19.1969946272  TIP3      5248            0.0000000000
     33093      5384  TIP3      H1             32.7204839667        0.8433046294       19.7165717170  TIP3      5248            0.0000000000
     33094      5384  TIP3      H2             33.8401347667       -0.1054691052       19.8245213445  TIP3      5248            0.0000000000
     33095      5385  TIP3      OH2            24.4107174757       61.9867962044       21.0723862717  TIP3      5249            0.0000000000
     33096      5385  TIP3      H1             23.5758001806       61.7913551966       20.6212386600  TIP3      5249            0.0000000000
     33097      5385  TIP3      H2             25.0565897439       61.7973349566       20.3498909555  TIP3      5249            0.0000000000
     33098      5386  TIP3      OH2            26.6932300032       57.0202792782       16.6930082576  TIP3      5250            0.0000000000
     33099      5386  TIP3      H1             26.3428088123       57.9174142719       16.9051655775  TIP3      5250            0.0000000000
     33100      5386  TIP3      H2             25.8782179166       56.5178193431       16.5246770289  TIP3      5250            0.0000000000
     33101      5387  TIP3      OH2            28.0384873982       61.3202949625       20.8099270517  TIP3      5251            0.0000000000
     33102      5387  TIP3      H1             27.4697043097       61.5270590351       21.5677957688  TIP3      5251            0.0000000000
     33103      5387  TIP3      H2             27.3538642144       61.1120873218       20.1196724932  TIP3      5251            0.0000000000
     33104      5388  TIP3      OH2            30.3103134283       60.3797096714       19.6127757341  TIP3      5252            0.0000000000
     33105      5388  TIP3      H1             29.4478134709       60.6396414736       20.0101300994  TIP3      5252            0.0000000000
     33106      5388  TIP3      H2             30.7129217498       59.8848825148       20.3699732487  TIP3      5252            0.0000000000
     33107      5389  TIP3      OH2            31.6823085946       59.1845673471       21.6701384736  TIP3      5253            0.0000000000
     33108      5389  TIP3      H1             31.8636076467       58.2252533316       21.5412911274  TIP3      5253            0.0000000000
     33109      5389  TIP3      H2             32.1808513707       59.3121164925       22.5169141354  TIP3      5253            0.0000000000
     33110      5390  TIP3      OH2            21.8703758251       60.1898423700       21.3462677866  TIP3      5254            0.0000000000
     33111      5390  TIP3      H1             21.9126419218       59.4259840654       20.7380458824  TIP3      5254            0.0000000000
     33112      5390  TIP3      H2             21.0121814069       60.0474547445       21.8085008828  TIP3      5254            0.0000000000
     33113      5391  TIP3      OH2            26.7332829873       56.6612358624       19.4021596565  TIP3      5255            0.0000000000
     33114      5391  TIP3      H1             27.4474246227       56.0511426481       19.6533847127  TIP3      5255            0.0000000000
     33115      5391  TIP3      H2             26.6563295218       56.5068449742       18.4405037049  TIP3      5255            0.0000000000
     33116      5392  TIP3      OH2            37.1349378046       65.9697556403        8.9978333746  TIP3      5256            0.0000000000
     33117      5392  TIP3      H1             36.5625438531       65.1968071438        9.1558697802  TIP3      5256            0.0000000000
     33118      5392  TIP3      H2             37.6229345899       65.9627940061        9.8406055496  TIP3      5256            0.0000000000
     33119      5393  TIP3      OH2            37.6630667703       65.2013961494        5.1363027507  TIP3      5257            0.0000000000
     33120      5393  TIP3      H1             36.6959094617       65.3292640444        5.1616566318  TIP3      5257            0.0000000000
     33121      5393  TIP3      H2             37.9914208879       65.8301677548        5.8188269866  TIP3      5257            0.0000000000
     33122      5394  TIP3      OH2            35.8304799665       62.7168347202        4.0474206174  TIP3      5258            0.0000000000
     33123      5394  TIP3      H1             35.9990303848       62.8248711943        3.0974246226  TIP3      5258            0.0000000000
     33124      5394  TIP3      H2             35.6196931027       61.7826428681        4.1311161139  TIP3      5258            0.0000000000
     33125      5395  TIP3      OH2            35.5890948165       64.1216016664       10.2228650698  TIP3      5259            0.0000000000
     33126      5395  TIP3      H1             35.4145365025       63.2134920658        9.9063682967  TIP3      5259            0.0000000000
     33127      5395  TIP3      H2             34.9402031477       64.1553365521       10.9599793687  TIP3      5259            0.0000000000
     33128      5396  TIP3      OH2            35.2919652553       66.1889373330       21.0315956748  TIP3      5260            0.0000000000
     33129      5396  TIP3      H1             35.7374813665       65.5032915961       20.5076910325  TIP3      5260            0.0000000000
     33130      5396  TIP3      H2             35.8357287543       66.9823100037       20.8264270124  TIP3      5260            0.0000000000
     33131      5397  TIP3      OH2            37.3146744994       63.6129830559       20.6374723448  TIP3      5261            0.0000000000
     33132      5397  TIP3      H1             36.5810310496       62.9856956621       20.4417803960  TIP3      5261            0.0000000000
     33133      5397  TIP3      H2             37.6665934517       63.7418583171       19.7471180769  TIP3      5261            0.0000000000
     33134      5398  TIP3      OH2            34.4651382505       62.0033763348        9.0773026435  TIP3      5262            0.0000000000
     33135      5398  TIP3      H1             34.7389788147       61.0563241363        9.0870332883  TIP3      5262            0.0000000000
     33136      5398  TIP3      H2             35.0995084941       62.2956941773        8.3933369866  TIP3      5262            0.0000000000
     33137      5399  TIP3      OH2            35.6524127387       62.5340561257       13.6877875017  TIP3      5263            0.0000000000
     33138      5399  TIP3      H1             36.5902544860       62.5660488227       13.9701311081  TIP3      5263            0.0000000000
     33139      5399  TIP3      H2             35.2328259186       62.7135746545       14.5581733086  TIP3      5263            0.0000000000
     33140      5400  TIP3      OH2            34.9885728738       62.9977329183       16.1743225131  TIP3      5264            0.0000000000
     33141      5400  TIP3      H1             34.1136796213       63.2946373803       16.5154584638  TIP3      5264            0.0000000000
     33142      5400  TIP3      H2             35.5204131936       63.8130015107       16.3379622179  TIP3      5264            0.0000000000
     33143      5401  TIP3      OH2            20.7115716282       61.6320385897       19.3708837334  TIP3      5265            0.0000000000
     33144      5401  TIP3      H1             21.0900494910       61.3530943764       20.2279077321  TIP3      5265            0.0000000000
     33145      5401  TIP3      H2             19.9186352279       61.0342789120       19.3536578691  TIP3      5265            0.0000000000
     33146      5402  TIP3      OH2            37.4609179555       57.5895825385       21.4138028445  TIP3      5266            0.0000000000
     33147      5402  TIP3      H1             37.8526413458       56.7576176940       21.0673366965  TIP3      5266            0.0000000000
     33148      5402  TIP3      H2             37.8119686777       58.2204199364       20.7599387244  TIP3      5266            0.0000000000
     33149      5403  TIP3      OH2            35.4578107881       59.6182401455        8.4470632563  TIP3      5267            0.0000000000
     33150      5403  TIP3      H1             35.7156162985       58.9121702726        9.0800517862  TIP3      5267            0.0000000000
     33151      5403  TIP3      H2             34.7933747195       59.1589148085        7.9092847525  TIP3      5267            0.0000000000
     33152      5404  TIP3      OH2            20.7452133078       59.8200636196       13.8866596843  TIP3      5268            0.0000000000
     33153      5404  TIP3      H1             21.1206953520       58.9038505587       13.8727616709  TIP3      5268            0.0000000000
     33154      5404  TIP3      H2             21.5471410814       60.3811658714       13.8289513308  TIP3      5268            0.0000000000
     33155      5405  TIP3      OH2            19.4400459507       62.9015940199       14.1711752179  TIP3      5269            0.0000000000
     33156      5405  TIP3      H1             19.9624040635       62.8080029473       13.3396182960  TIP3      5269            0.0000000000
     33157      5405  TIP3      H2             20.0406990588       63.4173727377       14.7190874588  TIP3      5269            0.0000000000
     33158      5406  TIP3      OH2            37.0659333492       59.9960221023       20.0477799946  TIP3      5270            0.0000000000
     33159      5406  TIP3      H1             36.6736912848       60.1083084219       20.9289188960  TIP3      5270            0.0000000000
     33160      5406  TIP3      H2             36.3399732697       59.6033430944       19.5227654012  TIP3      5270            0.0000000000
     33161      5407  TIP3      OH2            37.4586219505       59.2108165899        4.6989392080  TIP3      5271            0.0000000000
     33162      5407  TIP3      H1             37.7472075469       59.5024181614        3.8181475080  TIP3      5271            0.0000000000
     33163      5407  TIP3      H2             37.9231499649       59.8748276998        5.2499341593  TIP3      5271            0.0000000000
     33164      5408  TIP3      OH2            19.5397228812       59.0604292309        8.0163877355  TIP3      5272            0.0000000000
     33165      5408  TIP3      H1             18.9510314950       58.2950154355        7.9619044093  TIP3      5272            0.0000000000
     33166      5408  TIP3      H2             19.3929134025       59.5173092173        7.1678605477  TIP3      5272            0.0000000000
     33167      5409  TIP3      OH2            19.1206413682       57.5712913068       16.6036414028  TIP3      5273            0.0000000000
     33168      5409  TIP3      H1             18.4271836317       57.1233172356       17.1416681661  TIP3      5273            0.0000000000
     33169      5409  TIP3      H2             18.7089103364       58.4207894362       16.3982430551  TIP3      5273            0.0000000000
     33170      5410  TIP3      OH2            36.1486323362       56.9532511418       18.2467004599  TIP3      5274            0.0000000000
     33171      5410  TIP3      H1             35.5927967587       57.6469982946       17.8471026514  TIP3      5274            0.0000000000
     33172      5410  TIP3      H2             36.0264735566       56.1769012842       17.6668431198  TIP3      5274            0.0000000000
     33173      5411  TIP3      OH2            28.8641848936       57.8078204509       12.1610605194  TIP3      5275            0.0000000000
     33174      5411  TIP3      H1             28.1307639969       57.2998972195       12.5848388397  TIP3      5275            0.0000000000
     33175      5411  TIP3      H2             29.6359777201       57.2362973286       12.3233057298  TIP3      5275            0.0000000000
     33176      5412  TIP3      OH2            34.7655646840       56.7597880195       12.4124751197  TIP3      5276            0.0000000000
     33177      5412  TIP3      H1             35.4014684512       57.3313885439       11.9072779864  TIP3      5276            0.0000000000
     33178      5412  TIP3      H2             33.9270652320       57.1486733545       12.1032987755  TIP3      5276            0.0000000000
     33179      5413  TIP3      OH2            36.2570060892       57.9539272688       10.5523029429  TIP3      5277            0.0000000000
     33180      5413  TIP3      H1             36.9670773710       57.3939461329       10.1657222120  TIP3      5277            0.0000000000
     33181      5413  TIP3      H2             36.8408164850       58.6967853192       10.8574214704  TIP3      5277            0.0000000000
     33182      5414  TIP3      OH2            21.9336369805       56.9795267089       10.5829519213  TIP3      5278            0.0000000000
     33183      5414  TIP3      H1             21.0491347866       56.8844459354       10.1743565187  TIP3      5278            0.0000000000
     33184      5414  TIP3      H2             22.3504777687       56.1258774534       10.3287405498  TIP3      5278            0.0000000000
     33185      5415  TIP3      OH2            20.3338671040       57.3757293127        6.0328766453  TIP3      5279            0.0000000000
     33186      5415  TIP3      H1             21.1414703946       57.5982790344        5.5122046924  TIP3      5279            0.0000000000
     33187      5415  TIP3      H2             20.5436426450       57.7951867756        6.8881518554  TIP3      5279            0.0000000000
     33188      5416  TIP3      OH2            26.1051957995       56.5744969182       10.1143654268  TIP3      5280            0.0000000000
     33189      5416  TIP3      H1             27.0284202182       56.6711244663        9.8387622589  TIP3      5280            0.0000000000
     33190      5416  TIP3      H2             26.1137587874       56.9675924344       10.9977753676  TIP3      5280            0.0000000000
     33191      5417  TIP3      OH2            31.9513974362       57.3940487551       11.1885384593  TIP3      5281            0.0000000000
     33192      5417  TIP3      H1             31.6162590433       57.4254260258       10.2850546253  TIP3      5281            0.0000000000
     33193      5417  TIP3      H2             31.6520008298       56.4918648127       11.4612197558  TIP3      5281            0.0000000000
     33194      5418  TIP3      OH2            33.3837334465       57.6503759320        7.1103140843  TIP3      5282            0.0000000000
     33195      5418  TIP3      H1             32.5156768000       58.0929810747        7.1306141154  TIP3      5282            0.0000000000
     33196      5418  TIP3      H2             33.1326779283       56.7758925661        7.4616875172  TIP3      5282            0.0000000000
     33197      5419  TIP3      OH2            22.4433327712       58.4003724038        4.6629521911  TIP3      5283            0.0000000000
     33198      5419  TIP3      H1             22.6910226343       58.6426372427        3.7576945871  TIP3      5283            0.0000000000
     33199      5419  TIP3      H2             22.9975528743       59.0253742408        5.1752109339  TIP3      5283            0.0000000000
     33200      5420  TIP3      OH2            27.6135174843       59.4650748638        7.5128540360  TIP3      5284            0.0000000000
     33201      5420  TIP3      H1             28.1568135236       59.0587104920        8.2093547975  TIP3      5284            0.0000000000
     33202      5420  TIP3      H2             27.4974667581       60.3617334724        7.8875631580  TIP3      5284            0.0000000000
     33203      5421  TIP3      OH2            21.3393351972       57.7100043816       19.3098708559  TIP3      5285            0.0000000000
     33204      5421  TIP3      H1             20.6504852112       57.0470920250       19.5084428563  TIP3      5285            0.0000000000
     33205      5421  TIP3      H2             22.0992346289       57.3077878960       19.7491252370  TIP3      5285            0.0000000000
     33206      5422  TIP3      OH2            23.9256454908       57.3016998402       22.0082061045  TIP3      5286            0.0000000000
     33207      5422  TIP3      H1             24.6353106453       57.1403384776       21.3607867078  TIP3      5286            0.0000000000
     33208      5422  TIP3      H2             23.6636253870       56.3738133603       22.0992603178  TIP3      5286            0.0000000000
     33209      5423  TIP3      OH2            32.3357982476       56.6222412163       21.5503821536  TIP3      5287            0.0000000000
     33210      5423  TIP3      H1             32.4857334589       56.4013858263       22.4858306520  TIP3      5287            0.0000000000
     33211      5423  TIP3      H2             33.2397402949       56.5423439773       21.1874200354  TIP3      5287            0.0000000000
     33212      5424  TIP3      OH2            49.2661119698       65.4798644924       12.5641997146  TIP3      5288            0.0000000000
     33213      5424  TIP3      H1             49.5445746104       65.2933977615       13.4762658981  TIP3      5288            0.0000000000
     33214      5424  TIP3      H2             48.5106239515       64.8838639413       12.4670587481  TIP3      5288            0.0000000000
     33215      5425  TIP3      OH2            40.8291904713       65.4233432925       14.6134240698  TIP3      5289            0.0000000000
     33216      5425  TIP3      H1             40.9407805440       64.5354297141       14.9845693925  TIP3      5289            0.0000000000
     33217      5425  TIP3      H2             41.3417269995       65.9590998422       15.2411585708  TIP3      5289            0.0000000000
     33218      5426  TIP3      OH2            38.8694633449       63.0763251939        8.8436198158  TIP3      5290            0.0000000000
     33219      5426  TIP3      H1             38.8158951790       63.7905543474        9.5226558332  TIP3      5290            0.0000000000
     33220      5426  TIP3      H2             37.9812015966       63.1464610506        8.4401875553  TIP3      5290            0.0000000000
     33221      5427  TIP3      OH2            39.4037567510       65.0266145850       10.6503092608  TIP3      5291            0.0000000000
     33222      5427  TIP3      H1             39.5957662774       64.5081038400       11.4585175605  TIP3      5291            0.0000000000
     33223      5427  TIP3      H2             40.1231096959       65.6764740386       10.6590720925  TIP3      5291            0.0000000000
     33224      5428  TIP3      OH2            55.4129798977       59.4457051798       14.1961574740  TIP3      5292            0.0000000000
     33225      5428  TIP3      H1             55.6655759584       60.1024793948       14.8755388282  TIP3      5292            0.0000000000
     33226      5428  TIP3      H2             56.2885390062       59.2519382177       13.8036235273  TIP3      5292            0.0000000000
     33227      5429  TIP3      OH2            50.1729093197       62.3070462919       14.4289562805  TIP3      5293            0.0000000000
     33228      5429  TIP3      H1             50.4271097069       61.3637989571       14.5608413432  TIP3      5293            0.0000000000
     33229      5429  TIP3      H2             50.1044154606       62.3557041725       13.4443782274  TIP3      5293            0.0000000000
     33230      5430  TIP3      OH2            43.3046538150       60.1151124925       11.3670344558  TIP3      5294            0.0000000000
     33231      5430  TIP3      H1             43.4291924070       60.9237858282       10.8221802255  TIP3      5294            0.0000000000
     33232      5430  TIP3      H2             42.8808524820       59.5445229441       10.7033365253  TIP3      5294            0.0000000000
     33233      5431  TIP3      OH2            50.9348036542       60.6628715601       10.3946072616  TIP3      5295            0.0000000000
     33234      5431  TIP3      H1             51.5432682053       60.1059498678       10.9292004033  TIP3      5295            0.0000000000
     33235      5431  TIP3      H2             51.5860674010       61.2847205374       10.0233176653  TIP3      5295            0.0000000000
     33236      5432  TIP3      OH2            40.0251211078       62.9174328842       12.2640478171  TIP3      5296            0.0000000000
     33237      5432  TIP3      H1             40.5694691433       62.3336192361       12.8210292898  TIP3      5296            0.0000000000
     33238      5432  TIP3      H2             40.2884299647       62.5572156374       11.3853439648  TIP3      5296            0.0000000000
     33239      5433  TIP3      OH2            45.0111156485       64.3207148856       11.5718159704  TIP3      5297            0.0000000000
     33240      5433  TIP3      H1             45.7834095163       63.7220529090       11.6963678454  TIP3      5297            0.0000000000
     33241      5433  TIP3      H2             44.5097262542       63.8175470155       10.9088822605  TIP3      5297            0.0000000000
     33242      5434  TIP3      OH2            55.5381742609       60.9743120606       16.7210385920  TIP3      5298            0.0000000000
     33243      5434  TIP3      H1             55.0277709121       61.7838558242       16.4818091513  TIP3      5298            0.0000000000
     33244      5434  TIP3      H2             56.3472366657       61.3666581274       17.0832314810  TIP3      5298            0.0000000000
     33245      5435  TIP3      OH2            42.5312392887       59.5529995452       15.5037139398  TIP3      5299            0.0000000000
     33246      5435  TIP3      H1             41.9412821148       60.0084728985       14.8659382644  TIP3      5299            0.0000000000
     33247      5435  TIP3      H2             41.9631278591       59.5530182688       16.3018933196  TIP3      5299            0.0000000000
     33248      5436  TIP3      OH2            53.3357353428       60.1432251700       11.8842929959  TIP3      5300            0.0000000000
     33249      5436  TIP3      H1             53.3488859653       59.4550181923       12.5642490827  TIP3      5300            0.0000000000
     33250      5436  TIP3      H2             53.7081824055       60.8950210226       12.3842193146  TIP3      5300            0.0000000000
     33251      5437  TIP3      OH2            41.8788675632       61.2874838165       13.4585252531  TIP3      5301            0.0000000000
     33252      5437  TIP3      H1             42.5278054517       61.8203170449       13.9683070100  TIP3      5301            0.0000000000
     33253      5437  TIP3      H2             42.4456900622       60.9380806907       12.7230541487  TIP3      5301            0.0000000000
     33254      5438  TIP3      OH2            53.7729004088       58.1983105292       16.0426035560  TIP3      5302            0.0000000000
     33255      5438  TIP3      H1             53.0316497629       58.8193660416       15.9792695848  TIP3      5302            0.0000000000
     33256      5438  TIP3      H2             54.3070505094       58.4847200238       15.2627692545  TIP3      5302            0.0000000000
     33257      5439  TIP3      OH2            45.7396203605       56.7571877884       12.9098169962  TIP3      5303            0.0000000000
     33258      5439  TIP3      H1             45.5425603139       55.8251524023       12.7288754632  TIP3      5303            0.0000000000
     33259      5439  TIP3      H2             44.8426015336       57.0927865573       13.1850640662  TIP3      5303            0.0000000000
     33260      5440  TIP3      OH2            48.3677323061       65.3446142735        7.2949661097  TIP3      5304            0.0000000000
     33261      5440  TIP3      H1             48.1849858301       66.1394026551        7.8261408666  TIP3      5304            0.0000000000
     33262      5440  TIP3      H2             49.2614865332       65.5241779498        6.9265954672  TIP3      5304            0.0000000000
     33263      5441  TIP3      OH2            48.9708338200       64.1964519038        4.3499047536  TIP3      5305            0.0000000000
     33264      5441  TIP3      H1             49.5782772001       64.8122317178        4.7989538710  TIP3      5305            0.0000000000
     33265      5441  TIP3      H2             49.0499175350       63.3998686637        4.8939268370  TIP3      5305            0.0000000000
     33266      5442  TIP3      OH2            55.7467090574       65.0024492403       15.8974031092  TIP3      5306            0.0000000000
     33267      5442  TIP3      H1             56.1895451784       65.8782299138       15.7786609763  TIP3      5306            0.0000000000
     33268      5442  TIP3      H2             56.2152688123       64.4861217120       15.2018415929  TIP3      5306            0.0000000000
     33269      5443  TIP3      OH2            52.1322393402       65.2001330775        8.8951042507  TIP3      5307            0.0000000000
     33270      5443  TIP3      H1             51.8395296102       65.7230595256        9.6794343287  TIP3      5307            0.0000000000
     33271      5443  TIP3      H2             52.9899356745       64.8314951887        9.1902671092  TIP3      5307            0.0000000000
     33272      5444  TIP3      OH2            51.5065288271       63.7865167231       17.6827221230  TIP3      5308            0.0000000000
     33273      5444  TIP3      H1             51.5742674291       64.3779555417       18.4652273426  TIP3      5308            0.0000000000
     33274      5444  TIP3      H2             50.9404665331       64.2797389524       17.0583573537  TIP3      5308            0.0000000000
     33275      5445  TIP3      OH2            43.9476017247       64.8899330891       14.0878208063  TIP3      5309            0.0000000000
     33276      5445  TIP3      H1             44.1852361231       64.6686280801       13.1629390659  TIP3      5309            0.0000000000
     33277      5445  TIP3      H2             43.9539272237       65.8717710493       14.0156461599  TIP3      5309            0.0000000000
     33278      5446  TIP3      OH2            50.9091875593       65.2498493661        6.5287110733  TIP3      5310            0.0000000000
     33279      5446  TIP3      H1             51.4464224036       65.3612227499        7.3506350992  TIP3      5310            0.0000000000
     33280      5446  TIP3      H2             51.5304118846       65.5890986835        5.8415930335  TIP3      5310            0.0000000000
     33281      5447  TIP3      OH2            42.6195525762       65.6703631219       17.6134628597  TIP3      5311            0.0000000000
     33282      5447  TIP3      H1             42.9475559576       66.4406953234       18.0982673689  TIP3      5311            0.0000000000
     33283      5447  TIP3      H2             41.7679622155       65.5474958116       18.0622135809  TIP3      5311            0.0000000000
     33284      5448  TIP3      OH2            55.1108807066       57.0788293923        6.5262687990  TIP3      5312            0.0000000000
     33285      5448  TIP3      H1             54.1406804027       56.9247833080        6.5783285873  TIP3      5312            0.0000000000
     33286      5448  TIP3      H2             55.1505892425       57.7225061306        5.7945938697  TIP3      5312            0.0000000000
     33287      5449  TIP3      OH2            42.1330240035       65.5020433629        8.3960900102  TIP3      5313            0.0000000000
     33288      5449  TIP3      H1             42.5721695109       66.0078936806        7.6947784137  TIP3      5313            0.0000000000
     33289      5449  TIP3      H2             41.7715047482       64.7430938865        7.9240471326  TIP3      5313            0.0000000000
     33290      5450  TIP3      OH2            53.8847739981       62.4817014561       19.1391737149  TIP3      5314            0.0000000000
     33291      5450  TIP3      H1             52.9461558554       62.7184299415       19.0478878405  TIP3      5314            0.0000000000
     33292      5450  TIP3      H2             53.8486042989       61.5091862370       19.0766236872  TIP3      5314            0.0000000000
     33293      5451  TIP3      OH2            43.4010581698       57.7909839523       13.7002947391  TIP3      5315            0.0000000000
     33294      5451  TIP3      H1             42.5183997178       57.9667750620       13.3214855767  TIP3      5315            0.0000000000
     33295      5451  TIP3      H2             43.3427963813       58.3435942711       14.5093463491  TIP3      5315            0.0000000000
     33296      5452  TIP3      OH2            48.3268649459       57.1002924157       17.0444736890  TIP3      5316            0.0000000000
     33297      5452  TIP3      H1             48.5346406487       56.6362492246       17.8776765923  TIP3      5316            0.0000000000
     33298      5452  TIP3      H2             47.3556927650       57.2236241892       17.0967528129  TIP3      5316            0.0000000000
     33299      5453  TIP3      OH2            50.8874294752       61.2179579172       18.3758564360  TIP3      5317            0.0000000000
     33300      5453  TIP3      H1             50.1041305304       60.9176848483       18.8857060494  TIP3      5317            0.0000000000
     33301      5453  TIP3      H2             50.7531020919       62.1795318461       18.2449932079  TIP3      5317            0.0000000000
     33302      5454  TIP3      OH2            52.2530858328       65.8193940349        4.3490635746  TIP3      5318            0.0000000000
     33303      5454  TIP3      H1             52.5882669273       65.1422989594        3.7536449336  TIP3      5318            0.0000000000
     33304      5454  TIP3      H2             53.1064314899       66.1355441692        4.7371451643  TIP3      5318            0.0000000000
     33305      5455  TIP3      OH2            48.0807435372       60.0880939540        4.7086693882  TIP3      5319            0.0000000000
     33306      5455  TIP3      H1             47.4645576164       60.0194059222        5.4640660439  TIP3      5319            0.0000000000
     33307      5455  TIP3      H2             47.9335973885       59.2361525484        4.2966901060  TIP3      5319            0.0000000000
     33308      5456  TIP3      OH2            43.6554020841       62.4123136129       15.2086268886  TIP3      5320            0.0000000000
     33309      5456  TIP3      H1             42.8902028024       62.5937611504       15.8000767146  TIP3      5320            0.0000000000
     33310      5456  TIP3      H2             43.7658563506       63.2977901727       14.7907783550  TIP3      5320            0.0000000000
     33311      5457  TIP3      OH2            43.4418682424       62.2852518812        9.7195886088  TIP3      5321            0.0000000000
     33312      5457  TIP3      H1             42.4610968348       62.2825931443        9.6984342429  TIP3      5321            0.0000000000
     33313      5457  TIP3      H2             43.6628773465       62.2628769457        8.7662181788  TIP3      5321            0.0000000000
     33314      5458  TIP3      OH2            49.2743467636       63.5089117740        9.0244350229  TIP3      5322            0.0000000000
     33315      5458  TIP3      H1             48.8664728298       64.1863891890        8.4329921766  TIP3      5322            0.0000000000
     33316      5458  TIP3      H2             49.7298757497       62.9428817349        8.3814710949  TIP3      5322            0.0000000000
     33317      5459  TIP3      OH2            48.8331792758       63.1284700615       20.2206550037  TIP3      5323            0.0000000000
     33318      5459  TIP3      H1             48.1230005616       62.5068912089       20.5027056521  TIP3      5323            0.0000000000
     33319      5459  TIP3      H2             49.6210163335       62.6435043152       20.5419402378  TIP3      5323            0.0000000000
     33320      5460  TIP3      OH2            49.7938288873       62.6744560341       11.7704173976  TIP3      5324            0.0000000000
     33321      5460  TIP3      H1             49.7298241617       63.3738964854       11.0927176122  TIP3      5324            0.0000000000
     33322      5460  TIP3      H2             50.0590384642       61.9066037658       11.2135520989  TIP3      5324            0.0000000000
     33323      5461  TIP3      OH2            41.2664325569       62.7255805659       16.3667434885  TIP3      5325            0.0000000000
     33324      5461  TIP3      H1             41.4039940542       63.0962091628       17.2528295435  TIP3      5325            0.0000000000
     33325      5461  TIP3      H2             41.1071763867       61.7816450000       16.5853356780  TIP3      5325            0.0000000000
     33326      5462  TIP3      OH2            44.3392528591       60.5856822986        3.8950619084  TIP3      5326            0.0000000000
     33327      5462  TIP3      H1             43.8571551132       60.1785312433        4.6331707650  TIP3      5326            0.0000000000
     33328      5462  TIP3      H2             44.0630555835       61.5200909330        4.0019989945  TIP3      5326            0.0000000000
     33329      5463  TIP3      OH2            38.0766463240       59.8109165355       10.8303073404  TIP3      5327            0.0000000000
     33330      5463  TIP3      H1             38.6847856047       60.2686390738       11.4199696322  TIP3      5327            0.0000000000
     33331      5463  TIP3      H2             38.4801813974       59.9440305412        9.9551970587  TIP3      5327            0.0000000000
     33332      5464  TIP3      OH2            38.8060401162       61.0385128019        6.1727613596  TIP3      5328            0.0000000000
     33333      5464  TIP3      H1             39.5410977797       61.2859306247        5.5691545524  TIP3      5328            0.0000000000
     33334      5464  TIP3      H2             38.8920460401       61.6912551497        6.8930171826  TIP3      5328            0.0000000000
     33335      5465  TIP3      OH2            49.1358013960       64.2294268771       15.9276231197  TIP3      5329            0.0000000000
     33336      5465  TIP3      H1             49.4476578106       63.5883269439       15.2418660475  TIP3      5329            0.0000000000
     33337      5465  TIP3      H2             48.8392391517       63.5902826294       16.6245064162  TIP3      5329            0.0000000000
     33338      5466  TIP3      OH2            46.4459575087       59.8918508989       10.8160931360  TIP3      5330            0.0000000000
     33339      5466  TIP3      H1             45.5462859135       60.1527861807       11.0850843653  TIP3      5330            0.0000000000
     33340      5466  TIP3      H2             46.8265069332       59.5752144216       11.6698934189  TIP3      5330            0.0000000000
     33341      5467  TIP3      OH2            40.8139200517       61.7102367849        9.9661968960  TIP3      5331            0.0000000000
     33342      5467  TIP3      H1             40.1547446903       62.1505976400        9.3706282958  TIP3      5331            0.0000000000
     33343      5467  TIP3      H2             40.9880558548       60.8523873680        9.5132997759  TIP3      5331            0.0000000000
     33344      5468  TIP3      OH2            44.2583278292       61.7531711703        7.1464033193  TIP3      5332            0.0000000000
     33345      5468  TIP3      H1             45.1334560629       62.0509616988        7.4426532671  TIP3      5332            0.0000000000
     33346      5468  TIP3      H2             44.0847993860       62.3126806991        6.3581535445  TIP3      5332            0.0000000000
     33347      5469  TIP3      OH2            50.8507414085       59.7241606657       13.9411877314  TIP3      5333            0.0000000000
     33348      5469  TIP3      H1             50.2870592097       59.4668999043       14.7011231685  TIP3      5333            0.0000000000
     33349      5469  TIP3      H2             50.5244654854       59.1673041085       13.2201436573  TIP3      5333            0.0000000000
     33350      5470  TIP3      OH2            43.4599101377       63.0356885629        4.7463713185  TIP3      5334            0.0000000000
     33351      5470  TIP3      H1             42.7306126219       63.0382411334        4.0917247897  TIP3      5334            0.0000000000
     33352      5470  TIP3      H2             44.1809753256       63.5396063647        4.3150356915  TIP3      5334            0.0000000000
     33353      5471  TIP3      OH2            47.0092774642       62.6903311102       12.3959357613  TIP3      5335            0.0000000000
     33354      5471  TIP3      H1             47.9047532786       62.3165022265       12.2898028397  TIP3      5335            0.0000000000
     33355      5471  TIP3      H2             46.7296729587       62.2358144661       13.2234684230  TIP3      5335            0.0000000000
     33356      5472  TIP3      OH2            41.7839099027       59.2672798488        9.1615703596  TIP3      5336            0.0000000000
     33357      5472  TIP3      H1             41.3155970346       58.5084651350        9.5765042900  TIP3      5336            0.0000000000
     33358      5472  TIP3      H2             42.2234247036       58.8755086728        8.3894996168  TIP3      5336            0.0000000000
     33359      5473  TIP3      OH2            46.3073561047       61.7554301102       14.9542062638  TIP3      5337            0.0000000000
     33360      5473  TIP3      H1             45.4160729014       62.1678312955       14.9424647979  TIP3      5337            0.0000000000
     33361      5473  TIP3      H2             46.7318722063       62.2360928347       15.6785040082  TIP3      5337            0.0000000000
     33362      5474  TIP3      OH2            50.5378754293       60.4125027273        5.6481648439  TIP3      5338            0.0000000000
     33363      5474  TIP3      H1             49.6462283854       60.4239879606        5.2427635430  TIP3      5338            0.0000000000
     33364      5474  TIP3      H2             50.7264564289       61.3573935792        5.8129549599  TIP3      5338            0.0000000000
     33365      5475  TIP3      OH2            51.2248490127       62.6205918271        6.9494075260  TIP3      5339            0.0000000000
     33366      5475  TIP3      H1             51.9363171355       62.4631045098        7.5976931753  TIP3      5339            0.0000000000
     33367      5475  TIP3      H2             51.2381055495       63.5956402979        6.8969206721  TIP3      5339            0.0000000000
     33368      5476  TIP3      OH2            38.7872156344       65.4798463225       18.1050415240  TIP3      5340            0.0000000000
     33369      5476  TIP3      H1             39.2285830531       64.6945698532       18.4710872568  TIP3      5340            0.0000000000
     33370      5476  TIP3      H2             37.9924118728       65.1224040167       17.6655478008  TIP3      5340            0.0000000000
     33371      5477  TIP3      OH2            46.1881096528       64.5532273496       20.0502864898  TIP3      5341            0.0000000000
     33372      5477  TIP3      H1             45.4469853175       64.2264885532       19.4861079782  TIP3      5341            0.0000000000
     33373      5477  TIP3      H2             46.9497441801       64.0576820899       19.7157737273  TIP3      5341            0.0000000000
     33374      5478  TIP3      OH2            55.7564345967       63.0173033846        7.0566607612  TIP3      5342            0.0000000000
     33375      5478  TIP3      H1             55.3322223192       62.6879118559        6.2484424560  TIP3      5342            0.0000000000
     33376      5478  TIP3      H2             56.1314606670       63.8414117224        6.6856783831  TIP3      5342            0.0000000000
     33377      5479  TIP3      OH2            39.9710127676       64.6189558887        3.9894515150  TIP3      5343            0.0000000000
     33378      5479  TIP3      H1             40.1650238820       65.4593821437        4.4268793705  TIP3      5343            0.0000000000
     33379      5479  TIP3      H2             38.9978361101       64.6204838955        4.1667766090  TIP3      5343            0.0000000000
     33380      5480  TIP3      OH2            41.0599342245       60.3118643732       17.7463552178  TIP3      5344            0.0000000000
     33381      5480  TIP3      H1             40.2849962229       60.7223875761       18.1859627078  TIP3      5344            0.0000000000
     33382      5480  TIP3      H2             41.2600496603       59.6186340520       18.4110186698  TIP3      5344            0.0000000000
     33383      5481  TIP3      OH2            49.7894851957       59.2962400349       16.4899071371  TIP3      5345            0.0000000000
     33384      5481  TIP3      H1             50.1427603554       59.6030781470       17.3446466836  TIP3      5345            0.0000000000
     33385      5481  TIP3      H2             49.1675624734       58.5901589406       16.7816304900  TIP3      5345            0.0000000000
     33386      5482  TIP3      OH2            49.7660897226       59.5625875261        8.0802440276  TIP3      5346            0.0000000000
     33387      5482  TIP3      H1             50.1035281320       59.9076512895        7.2235214181  TIP3      5346            0.0000000000
     33388      5482  TIP3      H2             50.3430765570       60.0122334677        8.7261731122  TIP3      5346            0.0000000000
     33389      5483  TIP3      OH2            47.1372060721       61.4200423747        8.6945352393  TIP3      5347            0.0000000000
     33390      5483  TIP3      H1             47.5869639704       62.2666724179        8.8435188901  TIP3      5347            0.0000000000
     33391      5483  TIP3      H2             47.1164341856       61.0030064658        9.5892358130  TIP3      5347            0.0000000000
     33392      5484  TIP3      OH2            48.1259676234       62.2943356329       17.5174494918  TIP3      5348            0.0000000000
     33393      5484  TIP3      H1             48.1637570714       62.3357752500       18.4895316445  TIP3      5348            0.0000000000
     33394      5484  TIP3      H2             48.5853939711       61.4660470768       17.2988211751  TIP3      5348            0.0000000000
     33395      5485  TIP3      OH2            47.7063554524       57.9944704569        9.1310364263  TIP3      5349            0.0000000000
     33396      5485  TIP3      H1             47.1737475838       58.5752491017        9.7175860530  TIP3      5349            0.0000000000
     33397      5485  TIP3      H2             48.4323689044       58.6239475543        8.8710580460  TIP3      5349            0.0000000000
     33398      5486  TIP3      OH2            43.3194785534       59.3408312906        6.2788696317  TIP3      5350            0.0000000000
     33399      5486  TIP3      H1             43.4761329062       60.1948520175        6.7381313311  TIP3      5350            0.0000000000
     33400      5486  TIP3      H2             44.1717749926       58.9008627054        6.4746597420  TIP3      5350            0.0000000000
     33401      5487  TIP3      OH2            53.5547726250       59.9101721223       18.4373201862  TIP3      5351            0.0000000000
     33402      5487  TIP3      H1             52.6073452152       60.1513658897       18.3479907529  TIP3      5351            0.0000000000
     33403      5487  TIP3      H2             53.9446667718       60.3172288162       17.6343915528  TIP3      5351            0.0000000000
     33404      5488  TIP3      OH2            52.7890545308       64.1695393054       12.1425533707  TIP3      5352            0.0000000000
     33405      5488  TIP3      H1             51.9674943307       63.8432636189       12.5262781459  TIP3      5352            0.0000000000
     33406      5488  TIP3      H2             53.4519429336       63.7328855412       12.7285763811  TIP3      5352            0.0000000000
     33407      5489  TIP3      OH2            41.0072156245       62.0311470840        3.9763362727  TIP3      5353            0.0000000000
     33408      5489  TIP3      H1             40.7777871699       62.9849825731        3.9089883973  TIP3      5353            0.0000000000
     33409      5489  TIP3      H2             40.3194149094       61.5994288042        3.4519148226  TIP3      5353            0.0000000000
     33410      5490  TIP3      OH2            40.6539086278       57.4412783003       13.3464639142  TIP3      5354            0.0000000000
     33411      5490  TIP3      H1             40.5711143775       57.2608646871       12.3827486963  TIP3      5354            0.0000000000
     33412      5490  TIP3      H2             40.3523635573       56.5799861705       13.7012867771  TIP3      5354            0.0000000000
     33413      5491  TIP3      OH2            40.5728413774       64.2321070647       20.4879835247  TIP3      5355            0.0000000000
     33414      5491  TIP3      H1             41.0634122004       63.8011669915       21.2380725950  TIP3      5355            0.0000000000
     33415      5491  TIP3      H2             39.7360079767       64.4111245958       20.9339091462  TIP3      5355            0.0000000000
     33416      5492  TIP3      OH2            44.9981146157       66.2302786735        5.8168834636  TIP3      5356            0.0000000000
     33417      5492  TIP3      H1             44.3993066646       65.4966395137        5.9733647941  TIP3      5356            0.0000000000
     33418      5492  TIP3      H2             45.7323355212       65.7935396239        5.3539123159  TIP3      5356            0.0000000000
     33419      5493  TIP3      OH2            44.5458233466       63.8030337066       18.0275346303  TIP3      5357            0.0000000000
     33420      5493  TIP3      H1             43.8034421479       64.4426086544       17.9683000431  TIP3      5357            0.0000000000
     33421      5493  TIP3      H2             45.0716904560       64.0852243353       17.2470288551  TIP3      5357            0.0000000000
     33422      5494  TIP3      OH2            45.8384762581       64.2124699527        3.8449284058  TIP3      5358            0.0000000000
     33423      5494  TIP3      H1             45.7794634175       64.0185035656        2.8808153005  TIP3      5358            0.0000000000
     33424      5494  TIP3      H2             46.7976394760       64.0721349044        4.0089906358  TIP3      5358            0.0000000000
     33425      5495  TIP3      OH2            44.9844821898       61.2953247277       18.8444640476  TIP3      5359            0.0000000000
     33426      5495  TIP3      H1             45.0613853631       60.7615909188       18.0242694035  TIP3      5359            0.0000000000
     33427      5495  TIP3      H2             44.6701968277       62.1663331009       18.5094034587  TIP3      5359            0.0000000000
     33428      5496  TIP3      OH2            45.3220950351       59.6603675212       16.6882689611  TIP3      5360            0.0000000000
     33429      5496  TIP3      H1             45.9055912374       60.2207114111       16.1377946734  TIP3      5360            0.0000000000
     33430      5496  TIP3      H2             44.4645152931       59.8241951773       16.2502864842  TIP3      5360            0.0000000000
     33431      5497  TIP3      OH2            46.4384672608       64.6814690756       16.3212901801  TIP3      5361            0.0000000000
     33432      5497  TIP3      H1             47.3792752446       64.6502904272       16.0789412474  TIP3      5361            0.0000000000
     33433      5497  TIP3      H2             46.2538373938       65.6453750831       16.3076128481  TIP3      5361            0.0000000000
     33434      5498  TIP3      OH2            50.9510782693       62.0441067760       21.7290862460  TIP3      5362            0.0000000000
     33435      5498  TIP3      H1             50.1697715256       61.6808797565       22.1677010032  TIP3      5362            0.0000000000
     33436      5498  TIP3      H2             51.2484820467       62.7493769200       22.3433072924  TIP3      5362            0.0000000000
     33437      5499  TIP3      OH2            52.0934796061       65.6189934051       19.5594875553  TIP3      5363            0.0000000000
     33438      5499  TIP3      H1             52.1208986014       66.2927079751       18.8590399600  TIP3      5363            0.0000000000
     33439      5499  TIP3      H2             52.9187018816       65.8527738869       20.0278897970  TIP3      5363            0.0000000000
     33440      5500  TIP3      OH2            43.1817712572       62.3515411941       20.7704490738  TIP3      5364            0.0000000000
     33441      5500  TIP3      H1             42.3674517609       61.8549403772       20.5747718411  TIP3      5364            0.0000000000
     33442      5500  TIP3      H2             43.8517669746       61.8980961082       20.2237447958  TIP3      5364            0.0000000000
     33443      5501  TIP3      OH2            45.6138718052       56.9367784615       16.6856563555  TIP3      5365            0.0000000000
     33444      5501  TIP3      H1             45.3894571455       57.8923332133       16.7234997648  TIP3      5365            0.0000000000
     33445      5501  TIP3      H2             44.7641540613       56.5634020066       16.4117611409  TIP3      5365            0.0000000000
     33446      5502  TIP3      OH2            46.9337763228       61.2175320315       20.8034439467  TIP3      5366            0.0000000000
     33447      5502  TIP3      H1             46.3662883748       61.0122694324       21.5817283936  TIP3      5366            0.0000000000
     33448      5502  TIP3      H2             46.2650197976       61.0294090634       20.1065952109  TIP3      5366            0.0000000000
     33449      5503  TIP3      OH2            48.8738898462       59.7210571740       19.6063276034  TIP3      5367            0.0000000000
     33450      5503  TIP3      H1             48.0488741208       60.0502792893       20.0136890964  TIP3      5367            0.0000000000
     33451      5503  TIP3      H2             49.2220963423       59.1343626733       20.3132390652  TIP3      5367            0.0000000000
     33452      5504  TIP3      OH2            50.7995552788       58.7312466445       21.4501506398  TIP3      5368            0.0000000000
     33453      5504  TIP3      H1             50.8409156674       57.7889982239       21.7142013601  TIP3      5368            0.0000000000
     33454      5504  TIP3      H2             51.6690444033       59.0900288043       21.7044127400  TIP3      5368            0.0000000000
     33455      5505  TIP3      OH2            41.0750878669       60.6363902253       20.8126161251  TIP3      5369            0.0000000000
     33456      5505  TIP3      H1             41.4837391432       59.7590477169       20.8333739140  TIP3      5369            0.0000000000
     33457      5505  TIP3      H2             41.2605091218       60.8798745265       21.7595508297  TIP3      5369            0.0000000000
     33458      5506  TIP3      OH2            45.1827935786       56.3608946457       19.3588407310  TIP3      5370            0.0000000000
     33459      5506  TIP3      H1             45.8551357228       55.6699039236       19.4390671818  TIP3      5370            0.0000000000
     33460      5506  TIP3      H2             45.3365999443       56.6308953317       18.4355046236  TIP3      5370            0.0000000000
     33461      5507  TIP3      OH2            46.3957539574       57.9885624882       21.2597626787  TIP3      5371            0.0000000000
     33462      5507  TIP3      H1             45.8118947555       57.2462988628       21.0744622114  TIP3      5371            0.0000000000
     33463      5507  TIP3      H2             45.9368036516       58.3898959292       22.0076870346  TIP3      5371            0.0000000000
     33464      5508  TIP3      OH2            55.7851853116       65.8493932022        9.1371648895  TIP3      5372            0.0000000000
     33465      5508  TIP3      H1             55.2435811423       65.0388475340        9.2480434064  TIP3      5372            0.0000000000
     33466      5508  TIP3      H2             56.4487673160       65.6924528446        9.8339346114  TIP3      5372            0.0000000000
     33467      5509  TIP3      OH2            56.6002414853       65.1630383504        5.4753071855  TIP3      5373            0.0000000000
     33468      5509  TIP3      H1             55.7418335466       65.5452302200        5.7527555213  TIP3      5373            0.0000000000
     33469      5509  TIP3      H2             57.2247831308       65.7687453915        5.9396323676  TIP3      5373            0.0000000000
     33470      5510  TIP3      OH2            54.7809664029       62.7174241463        4.1190985650  TIP3      5374            0.0000000000
     33471      5510  TIP3      H1             54.7600397982       62.7675014573        3.1568439160  TIP3      5374            0.0000000000
     33472      5510  TIP3      H2             54.7756988808       61.7622889298        4.2446327612  TIP3      5374            0.0000000000
     33473      5511  TIP3      OH2            54.3123980325       63.7734076488       10.0068436629  TIP3      5375            0.0000000000
     33474      5511  TIP3      H1             54.0424302853       62.9015596173        9.6634073091  TIP3      5375            0.0000000000
     33475      5511  TIP3      H2             53.7772583979       63.8219613489       10.8358254185  TIP3      5375            0.0000000000
     33476      5512  TIP3      OH2            54.6572659128       66.5898634115       20.4641189402  TIP3      5376            0.0000000000
     33477      5512  TIP3      H1             55.0560866570       65.7165967096       20.6495590657  TIP3      5376            0.0000000000
     33478      5512  TIP3      H2             54.7071049406       66.6469324699       19.4812305756  TIP3      5376            0.0000000000
     33479      5513  TIP3      OH2            56.0040412264       63.8554523160       20.0721693290  TIP3      5377            0.0000000000
     33480      5513  TIP3      H1             55.2287657553       63.3291050792       19.7767904744  TIP3      5377            0.0000000000
     33481      5513  TIP3      H2             56.6674177054       63.1400235322       20.1489954216  TIP3      5377            0.0000000000
     33482      5514  TIP3      OH2            53.1300898956       61.7008968224        8.7826223599  TIP3      5378            0.0000000000
     33483      5514  TIP3      H1             53.2223512744       60.7242941236        8.8609748980  TIP3      5378            0.0000000000
     33484      5514  TIP3      H2             53.8493895009       61.8678768089        8.1518652550  TIP3      5378            0.0000000000
     33485      5515  TIP3      OH2            54.4056287649       62.5601934581       13.5940170381  TIP3      5379            0.0000000000
     33486      5515  TIP3      H1             55.3492496438       62.6657343183       13.8150329436  TIP3      5379            0.0000000000
     33487      5515  TIP3      H2             54.0073315806       62.6384841617       14.4899193062  TIP3      5379            0.0000000000
     33488      5516  TIP3      OH2            53.8651822117       63.1432796696       16.1525313061  TIP3      5380            0.0000000000
     33489      5516  TIP3      H1             53.0751096672       63.3441634688       16.6911300460  TIP3      5380            0.0000000000
     33490      5516  TIP3      H2             54.3832470735       63.9778686048       16.2429794862  TIP3      5380            0.0000000000
     33491      5517  TIP3      OH2            38.9900130785       61.8553960766       19.0458800243  TIP3      5381            0.0000000000
     33492      5517  TIP3      H1             39.5912623414       62.0692077993       19.7861148407  TIP3      5381            0.0000000000
     33493      5517  TIP3      H2             38.5358012469       61.0656479175       19.4120765019  TIP3      5381            0.0000000000
     33494      5518  TIP3      OH2            56.1109688809       56.8368983764       21.3982481912  TIP3      5382            0.0000000000
     33495      5518  TIP3      H1             56.5474470603       56.1576675332       20.8429569570  TIP3      5382            0.0000000000
     33496      5518  TIP3      H2             56.2340329312       57.6215426709       20.8203453676  TIP3      5382            0.0000000000
     33497      5519  TIP3      OH2            53.4274260844       58.9445867504        8.5841042553  TIP3      5383            0.0000000000
     33498      5519  TIP3      H1             54.0735401920       58.7666082483        9.3009565771  TIP3      5383            0.0000000000
     33499      5519  TIP3      H2             53.4820721717       58.1317790366        8.0600090734  TIP3      5383            0.0000000000
     33500      5520  TIP3      OH2            39.6042645053       59.8953611981       13.8775433998  TIP3      5384            0.0000000000
     33501      5520  TIP3      H1             39.8292579201       58.9587934540       13.6558354774  TIP3      5384            0.0000000000
     33502      5520  TIP3      H2             40.4360258998       60.3697114796       13.6757551541  TIP3      5384            0.0000000000
     33503      5521  TIP3      OH2            38.1731702980       63.2847604204       14.3670147169  TIP3      5385            0.0000000000
     33504      5521  TIP3      H1             38.8132509656       62.6132146224       14.0774450305  TIP3      5385            0.0000000000
     33505      5521  TIP3      H2             38.6547518390       64.0861619842       14.1166443452  TIP3      5385            0.0000000000
     33506      5522  TIP3      OH2            55.9191378978       59.1551990530       20.1353782111  TIP3      5386            0.0000000000
     33507      5522  TIP3      H1             55.2238437207       59.3274472771       20.8076360780  TIP3      5386            0.0000000000
     33508      5522  TIP3      H2             55.3484616706       59.1384893348       19.3376473110  TIP3      5386            0.0000000000
     33509      5523  TIP3      OH2            56.3629228301       59.1984925409        4.8738003872  TIP3      5387            0.0000000000
     33510      5523  TIP3      H1             56.8390460126       58.3742307629        4.6899533806  TIP3      5387            0.0000000000
     33511      5523  TIP3      H2             56.9958939794       59.6890428554        5.4363004307  TIP3      5387            0.0000000000
     33512      5524  TIP3      OH2            38.1517709044       59.1249956549        8.1079132575  TIP3      5388            0.0000000000
     33513      5524  TIP3      H1             37.1945035600       59.3215374654        8.1150318599  TIP3      5388            0.0000000000
     33514      5524  TIP3      H2             38.3788489465       59.3684150235        7.1991804904  TIP3      5388            0.0000000000
     33515      5525  TIP3      OH2            37.9899173847       57.7026670193       16.2907293055  TIP3      5389            0.0000000000
     33516      5525  TIP3      H1             37.5202994302       57.2866875260       17.0408160376  TIP3      5389            0.0000000000
     33517      5525  TIP3      H2             37.6269051074       58.5984202115       16.2658435552  TIP3      5389            0.0000000000
     33518      5526  TIP3      OH2            54.8205763669       56.6463007619       18.0965598528  TIP3      5390            0.0000000000
     33519      5526  TIP3      H1             54.4115903038       57.2025201536       17.3999729479  TIP3      5390            0.0000000000
     33520      5526  TIP3      H2             54.9556017160       55.7799410570       17.6417711528  TIP3      5390            0.0000000000
     33521      5527  TIP3      OH2            47.6577123965       58.5901683835       12.8206320386  TIP3      5391            0.0000000000
     33522      5527  TIP3      H1             46.9440459948       57.9446487056       13.0115275866  TIP3      5391            0.0000000000
     33523      5527  TIP3      H2             48.3084370644       58.0472201427       12.3603683458  TIP3      5391            0.0000000000
     33524      5528  TIP3      OH2            53.4193411129       56.7967887672       12.2644403382  TIP3      5392            0.0000000000
     33525      5528  TIP3      H1             54.0982868801       57.2992703274       11.7543315647  TIP3      5392            0.0000000000
     33526      5528  TIP3      H2             52.5784359917       57.0222131387       11.7943451998  TIP3      5392            0.0000000000
     33527      5529  TIP3      OH2            55.2960619168       57.8545332467       10.3648606641  TIP3      5393            0.0000000000
     33528      5529  TIP3      H1             56.0183943513       57.2503187204       10.0579350051  TIP3      5393            0.0000000000
     33529      5529  TIP3      H2             55.8330807214       58.6565446936       10.5860871249  TIP3      5393            0.0000000000
     33530      5530  TIP3      OH2            40.4833313761       57.1437367445       10.5973356498  TIP3      5394            0.0000000000
     33531      5530  TIP3      H1             39.6701140826       56.9843088232       10.0846517081  TIP3      5394            0.0000000000
     33532      5530  TIP3      H2             40.9681787417       56.3046406410       10.4848861829  TIP3      5394            0.0000000000
     33533      5531  TIP3      OH2            39.7103381261       56.8491256369        6.0879046264  TIP3      5395            0.0000000000
     33534      5531  TIP3      H1             40.0121678437       57.7086567953        5.7220890555  TIP3      5395            0.0000000000
     33535      5531  TIP3      H2             39.0604915734       57.1295541131        6.7520717902  TIP3      5395            0.0000000000
     33536      5532  TIP3      OH2            45.0974423393       56.4556047856       10.2122922174  TIP3      5396            0.0000000000
     33537      5532  TIP3      H1             45.8853286139       56.5950295729        9.6761744718  TIP3      5396            0.0000000000
     33538      5532  TIP3      H2             45.3081185914       56.9668755853       11.0102531256  TIP3      5396            0.0000000000
     33539      5533  TIP3      OH2            51.0302838384       56.8864698531       10.9946197651  TIP3      5397            0.0000000000
     33540      5533  TIP3      H1             50.5237899730       57.2766615846       10.2746637917  TIP3      5397            0.0000000000
     33541      5533  TIP3      H2             50.4690164167       56.1103563605       11.2468409053  TIP3      5397            0.0000000000
     33542      5534  TIP3      OH2            52.4948333336       56.7380156048        6.9091507553  TIP3      5398            0.0000000000
     33543      5534  TIP3      H1             51.9571215671       57.5148390336        7.1274125942  TIP3      5398            0.0000000000
     33544      5534  TIP3      H2             51.9632418998       56.0485757281        7.3677222776  TIP3      5398            0.0000000000
     33545      5535  TIP3      OH2            41.0285852140       58.8564955356        4.8727848771  TIP3      5399            0.0000000000
     33546      5535  TIP3      H1             41.6946100445       58.3677200840        4.3635598549  TIP3      5399            0.0000000000
     33547      5535  TIP3      H2             41.6212992266       59.3663737529        5.4600948001  TIP3      5399            0.0000000000
     33548      5536  TIP3      OH2            46.5507510613       59.2954128809        6.9655246703  TIP3      5400            0.0000000000
     33549      5536  TIP3      H1             46.9098258581       58.6837857054        7.6351301292  TIP3      5400            0.0000000000
     33550      5536  TIP3      H2             46.6710132882       60.1456592219        7.4480244455  TIP3      5400            0.0000000000
     33551      5537  TIP3      OH2            40.6463305642       57.6429769969       19.3409500172  TIP3      5401            0.0000000000
     33552      5537  TIP3      H1             39.9676046503       57.1086177422       19.7821685863  TIP3      5401            0.0000000000
     33553      5537  TIP3      H2             41.3733914888       57.6196895635       20.0035498720  TIP3      5401            0.0000000000
     33554      5538  TIP3      OH2            42.3272101613       57.4783713013       21.4518118906  TIP3      5402            0.0000000000
     33555      5538  TIP3      H1             43.1694893218       57.0054319173       21.3715729852  TIP3      5402            0.0000000000
     33556      5538  TIP3      H2             41.9996766226       57.1029939462       22.2993798854  TIP3      5402            0.0000000000
     33557      5539  TIP3      OH2            50.9488247560       56.0435224295       21.4066175220  TIP3      5403            0.0000000000
     33558      5539  TIP3      H1             50.5039233479       55.1988139345       21.2092715034  TIP3      5403            0.0000000000
     33559      5539  TIP3      H2             51.6917766224       56.0974154423       20.7627644000  TIP3      5403            0.0000000000
     33560      5540  TIP3      OH2            59.5832525611       65.1641927024       15.1477158557  TIP3      5404            0.0000000000
     33561      5540  TIP3      H1             59.2696387989       64.6287709355       15.8923976385  TIP3      5404            0.0000000000
     33562      5540  TIP3      H2             59.7961476617       66.0267955291       15.5204684174  TIP3      5404            0.0000000000
     33563      5541  TIP3      OH2            57.7007125069       62.9868139032        8.9076490882  TIP3      5405            0.0000000000
     33564      5541  TIP3      H1             57.4826772848       63.6327395883        9.6227936232  TIP3      5405            0.0000000000
     33565      5541  TIP3      H2             56.8564761416       62.9962568680        8.4096875806  TIP3      5405            0.0000000000
     33566      5542  TIP3      OH2            57.8636294057       64.9201252493       10.7713499505  TIP3      5406            0.0000000000
     33567      5542  TIP3      H1             58.1275038827       64.4236563092       11.5694537050  TIP3      5406            0.0000000000
     33568      5542  TIP3      H2             58.6844666989       65.3558980832       10.4924689291  TIP3      5406            0.0000000000
     33569      5543  TIP3      OH2            61.8851836296       60.0962088408       11.4955749866  TIP3      5407            0.0000000000
     33570      5543  TIP3      H1             62.0378511254       60.9602779950       11.0458320058  TIP3      5407            0.0000000000
     33571      5543  TIP3      H2             61.5602505142       59.5765707325       10.7339782255  TIP3      5407            0.0000000000
     33572      5544  TIP3      OH2            58.9099413638       62.7683653227       12.1087500717  TIP3      5408            0.0000000000
     33573      5544  TIP3      H1             59.5311687275       62.3037387284       12.7134385151  TIP3      5408            0.0000000000
     33574      5544  TIP3      H2             59.2478555699       62.4816091209       11.2377127010  TIP3      5408            0.0000000000
     33575      5545  TIP3      OH2            64.4376481614       64.5234153049       11.6794488920  TIP3      5409            0.0000000000
     33576      5545  TIP3      H1             64.9809918548       63.7039063210       11.7483491187  TIP3      5409            0.0000000000
     33577      5545  TIP3      H2             63.5941934366       64.1568236604       11.3511266595  TIP3      5409            0.0000000000
     33578      5546  TIP3      OH2            61.2099665710       59.6238826858       15.7097153506  TIP3      5410            0.0000000000
     33579      5546  TIP3      H1             60.8801360799       60.1984352671       14.9825438661  TIP3      5410            0.0000000000
     33580      5546  TIP3      H2             60.4620308324       59.7230229679       16.3381954995  TIP3      5410            0.0000000000
     33581      5547  TIP3      OH2            60.6625691546       61.3091715210       13.6187700343  TIP3      5411            0.0000000000
     33582      5547  TIP3      H1             61.4103438886       61.8206750053       14.0283299448  TIP3      5411            0.0000000000
     33583      5547  TIP3      H2             61.1270553225       60.9414574069       12.8276051025  TIP3      5411            0.0000000000
     33584      5548  TIP3      OH2            64.6580075975       57.3120622925       13.0605254908  TIP3      5412            0.0000000000
     33585      5548  TIP3      H1             65.2121917608       56.8602600544       13.7076544096  TIP3      5412            0.0000000000
     33586      5548  TIP3      H2             63.7939666489       57.3781180987       13.5140976996  TIP3      5412            0.0000000000
     33587      5549  TIP3      OH2            62.9050328096       65.1305434968       14.0349164565  TIP3      5413            0.0000000000
     33588      5549  TIP3      H1             63.5391774575       64.8485247320       13.3481008300  TIP3      5413            0.0000000000
     33589      5549  TIP3      H2             62.6663790837       66.0143370066       13.6996082382  TIP3      5413            0.0000000000
     33590      5550  TIP3      OH2            61.2516849239       65.8270312207       17.9327647910  TIP3      5414            0.0000000000
     33591      5550  TIP3      H1             61.5107508471       66.3718141174       18.6906498242  TIP3      5414            0.0000000000
     33592      5550  TIP3      H2             60.3083185019       65.7237409419       18.1049270978  TIP3      5414            0.0000000000
     33593      5551  TIP3      OH2            61.4800885735       65.3583825578        8.2234046897  TIP3      5415            0.0000000000
     33594      5551  TIP3      H1             62.0262189712       65.9394687426        7.6510951692  TIP3      5415            0.0000000000
     33595      5551  TIP3      H2             60.9809445281       64.8618944250        7.5653346112  TIP3      5415            0.0000000000
     33596      5552  TIP3      OH2            61.9791709392       57.8123450315       13.9313847884  TIP3      5416            0.0000000000
     33597      5552  TIP3      H1             61.0933542233       57.9237616428       13.5388339691  TIP3      5416            0.0000000000
     33598      5552  TIP3      H2             61.9389190697       58.5119740085       14.6226488965  TIP3      5416            0.0000000000
     33599      5553  TIP3      OH2            62.5273932919       62.6006540535       14.9273437235  TIP3      5417            0.0000000000
     33600      5553  TIP3      H1             62.0584776775       62.7620769225       15.7611965611  TIP3      5417            0.0000000000
     33601      5553  TIP3      H2             62.5920788192       63.5288946184       14.6162400978  TIP3      5417            0.0000000000
     33602      5554  TIP3      OH2            62.2837400698       62.5983509703       10.4479673677  TIP3      5418            0.0000000000
     33603      5554  TIP3      H1             61.4737264876       62.4154920310        9.9285240647  TIP3      5418            0.0000000000
     33604      5554  TIP3      H2             62.8876312374       62.7978845057        9.7158002055  TIP3      5418            0.0000000000
     33605      5555  TIP3      OH2            59.8399073114       62.7066533117       16.4963658099  TIP3      5419            0.0000000000
     33606      5555  TIP3      H1             60.3461549224       62.9671710803       17.2758336363  TIP3      5419            0.0000000000
     33607      5555  TIP3      H2             59.6504150738       61.7655147227       16.6836355103  TIP3      5419            0.0000000000
     33608      5556  TIP3      OH2            63.2398351505       59.8680086355        3.5223161294  TIP3      5420            0.0000000000
     33609      5556  TIP3      H1             63.1054995912       59.8052201245        4.4892226428  TIP3      5420            0.0000000000
     33610      5556  TIP3      H2             62.6728722627       60.6304571206        3.3393161501  TIP3      5420            0.0000000000
     33611      5557  TIP3      OH2            56.8856461489       60.0014933866       10.7832351694  TIP3      5421            0.0000000000
     33612      5557  TIP3      H1             57.6333565457       59.9637726602       11.3930397900  TIP3      5421            0.0000000000
     33613      5557  TIP3      H2             57.1261183656       60.7265307943       10.1985914792  TIP3      5421            0.0000000000
     33614      5558  TIP3      OH2            57.9951047230       60.8899083020        6.2495290435  TIP3      5422            0.0000000000
     33615      5558  TIP3      H1             58.4541409414       61.1864249840        5.4319229533  TIP3      5422            0.0000000000
     33616      5558  TIP3      H2             57.8635073551       61.7161254267        6.7410133504  TIP3      5422            0.0000000000
     33617      5559  TIP3      OH2            64.6518452259       60.0460528341       11.2817030035  TIP3      5423            0.0000000000
     33618      5559  TIP3      H1             63.7141935439       59.9266941903       11.5162337179  TIP3      5423            0.0000000000
     33619      5559  TIP3      H2             64.9402048394       60.7077670271       11.9474311889  TIP3      5423            0.0000000000
     33620      5560  TIP3      OH2            59.8104189730       61.4263208868        9.6187304813  TIP3      5424            0.0000000000
     33621      5560  TIP3      H1             59.1036391588       61.8855684273        9.1016064793  TIP3      5424            0.0000000000
     33622      5560  TIP3      H2             59.8773358120       60.5503079105        9.1754272075  TIP3      5424            0.0000000000
     33623      5561  TIP3      OH2            63.5416705576       62.4922819739        7.6407070990  TIP3      5425            0.0000000000
     33624      5561  TIP3      H1             64.4277804606       62.8642771231        7.7529418492  TIP3      5425            0.0000000000
     33625      5561  TIP3      H2             63.3260819832       62.6500229533        6.7061770135  TIP3      5425            0.0000000000
     33626      5562  TIP3      OH2            62.3723834938       63.1611499698        4.4782591314  TIP3      5426            0.0000000000
     33627      5562  TIP3      H1             61.6438505229       63.3681470197        3.8716246447  TIP3      5426            0.0000000000
     33628      5562  TIP3      H2             63.1317960657       63.4961937599        3.9618570026  TIP3      5426            0.0000000000
     33629      5563  TIP3      OH2            65.6019792093       62.1828634886       12.4583241152  TIP3      5427            0.0000000000
     33630      5563  TIP3      H1             66.4663289387       62.4518147701       12.0699962155  TIP3      5427            0.0000000000
     33631      5563  TIP3      H2             65.8713278196       62.1568160568       13.3935415180  TIP3      5427            0.0000000000
     33632      5564  TIP3      OH2            61.0718509543       58.7408330074        9.0050318739  TIP3      5428            0.0000000000
     33633      5564  TIP3      H1             60.4339317653       58.1595631080        9.4753486568  TIP3      5428            0.0000000000
     33634      5564  TIP3      H2             61.8278996071       58.1467015346        8.8869668141  TIP3      5428            0.0000000000
     33635      5565  TIP3      OH2            64.8145270952       61.3967961198       15.7629480874  TIP3      5429            0.0000000000
     33636      5565  TIP3      H1             64.0315927857       61.9396715761       15.5337381830  TIP3      5429            0.0000000000
     33637      5565  TIP3      H2             65.5193851872       61.9777414582       15.4237881499  TIP3      5429            0.0000000000
     33638      5566  TIP3      OH2            57.2148974708       65.4907286424       18.3932854925  TIP3      5430            0.0000000000
     33639      5566  TIP3      H1             56.8327829005       64.7965939205       18.9832821945  TIP3      5430            0.0000000000
     33640      5566  TIP3      H2             56.5689752757       65.5165358743       17.6615527764  TIP3      5430            0.0000000000
     33641      5567  TIP3      OH2            64.6952646915       63.8945806120       19.9072249492  TIP3      5431            0.0000000000
     33642      5567  TIP3      H1             64.0717634257       63.2469090516       19.5199389781  TIP3      5431            0.0000000000
     33643      5567  TIP3      H2             65.5325865193       63.4114351339       19.8449623953  TIP3      5431            0.0000000000
     33644      5568  TIP3      OH2            59.0153356409       64.5483137416        4.2802536369  TIP3      5432            0.0000000000
     33645      5568  TIP3      H1             59.2056370238       65.4716240886        4.5076321070  TIP3      5432            0.0000000000
     33646      5568  TIP3      H2             58.0401021744       64.6304245807        4.2589857886  TIP3      5432            0.0000000000
     33647      5569  TIP3      OH2            59.2033481661       60.2195147132       17.5301278283  TIP3      5433            0.0000000000
     33648      5569  TIP3      H1             58.6084589793       60.7325810394       18.1158926956  TIP3      5433            0.0000000000
     33649      5569  TIP3      H2             59.2505312844       59.3861229200       18.0298856112  TIP3      5433            0.0000000000
     33650      5570  TIP3      OH2            66.2199014699       61.8640163376        9.4154835648  TIP3      5434            0.0000000000
     33651      5570  TIP3      H1             66.8575738986       61.2595239499        9.8645354342  TIP3      5434            0.0000000000
     33652      5570  TIP3      H2             65.4078529126       61.3591310190        9.5790673380  TIP3      5434            0.0000000000
     33653      5571  TIP3      OH2            62.2124755073       59.8034188814        6.0785779311  TIP3      5435            0.0000000000
     33654      5571  TIP3      H1             62.0565762546       60.4617524143        6.7828373582  TIP3      5435            0.0000000000
     33655      5571  TIP3      H2             62.6752528927       59.1068912553        6.5884555877  TIP3      5435            0.0000000000
     33656      5572  TIP3      OH2            58.9247513973       61.8959634456        3.8558454246  TIP3      5436            0.0000000000
     33657      5572  TIP3      H1             59.6127297980       62.5251375807        4.1461344683  TIP3      5436            0.0000000000
     33658      5572  TIP3      H2             58.1709708598       62.5084652373        3.8008009581  TIP3      5436            0.0000000000
     33659      5573  TIP3      OH2            59.2854463442       57.4855658709       13.3200429111  TIP3      5437            0.0000000000
     33660      5573  TIP3      H1             59.4803441326       57.3863859596       12.3651007698  TIP3      5437            0.0000000000
     33661      5573  TIP3      H2             59.2025847078       56.5337764722       13.5765914436  TIP3      5437            0.0000000000
     33662      5574  TIP3      OH2            58.9449969571       64.7279994210       21.4108385846  TIP3      5438            0.0000000000
     33663      5574  TIP3      H1             59.7299292545       64.1585877173       21.3813054789  TIP3      5438            0.0000000000
     33664      5574  TIP3      H2             58.8902655106       64.9065117282       22.3724220280  TIP3      5438            0.0000000000
     33665      5575  TIP3      OH2            62.9229926664       65.7604180918        5.9054991896  TIP3      5439            0.0000000000
     33666      5575  TIP3      H1             63.1734225682       64.8430084092        6.0754405887  TIP3      5439            0.0000000000
     33667      5575  TIP3      H2             63.1419374458       65.8561266176        4.9673145658  TIP3      5439            0.0000000000
     33668      5576  TIP3      OH2            62.8728940378       63.6587368086       17.4813957231  TIP3      5440            0.0000000000
     33669      5576  TIP3      H1             62.3844036004       64.4765039482       17.7035209556  TIP3      5440            0.0000000000
     33670      5576  TIP3      H2             63.7350246228       64.0332910573       17.2180839909  TIP3      5440            0.0000000000
     33671      5577  TIP3      OH2            64.9433321162       64.4790518058        3.6273185136  TIP3      5441            0.0000000000
     33672      5577  TIP3      H1             64.9737005404       63.9166699280        2.8408335097  TIP3      5441            0.0000000000
     33673      5577  TIP3      H2             65.8379691700       64.8524749295        3.6385632763  TIP3      5441            0.0000000000
     33674      5578  TIP3      OH2            63.4318995592       61.5397884314       19.0220893718  TIP3      5442            0.0000000000
     33675      5578  TIP3      H1             63.4923982492       60.7141473578       18.4921457085  TIP3      5442            0.0000000000
     33676      5578  TIP3      H2             63.0840916805       62.1884465184       18.3614393274  TIP3      5442            0.0000000000
     33677      5579  TIP3      OH2            63.4752486628       59.4592973529       17.1346439568  TIP3      5443            0.0000000000
     33678      5579  TIP3      H1             64.0083232733       60.1085886985       16.6084638123  TIP3      5443            0.0000000000
     33679      5579  TIP3      H2             62.6114648694       59.5297778242       16.6728623012  TIP3      5443            0.0000000000
     33680      5580  TIP3      OH2            65.3618587596       65.0407673116       16.7517716170  TIP3      5444            0.0000000000
     33681      5580  TIP3      H1             65.8379634351       65.3949192154       15.9825124696  TIP3      5444            0.0000000000
     33682      5580  TIP3      H2             64.7746068177       65.7884013460       16.9906981258  TIP3      5444            0.0000000000
     33683      5581  TIP3      OH2            61.5004256859       62.6358920628       20.8380267405  TIP3      5445            0.0000000000
     33684      5581  TIP3      H1             60.8933031842       61.8853463570       20.9735108812  TIP3      5445            0.0000000000
     33685      5581  TIP3      H2             62.2766090337       62.1802104412       20.4708667082  TIP3      5445            0.0000000000
     33686      5582  TIP3      OH2            64.1284599199       56.9806760584       16.4119445022  TIP3      5446            0.0000000000
     33687      5582  TIP3      H1             63.8080682541       57.9011087337       16.5536304690  TIP3      5446            0.0000000000
     33688      5582  TIP3      H2             63.2913433590       56.4806302925       16.3951807432  TIP3      5446            0.0000000000
     33689      5583  TIP3      OH2            65.3761624929       61.3375135204       21.6423620283  TIP3      5447            0.0000000000
     33690      5583  TIP3      H1             64.7755491126       61.0487513578       22.3493414149  TIP3      5447            0.0000000000
     33691      5583  TIP3      H2             64.8186864726       61.2598154169       20.8596289045  TIP3      5447            0.0000000000
     33692      5584  TIP3      OH2            59.4290697255       60.5518859955       21.2867366328  TIP3      5448            0.0000000000
     33693      5584  TIP3      H1             59.5220253810       59.7356661643       20.7617709921  TIP3      5448            0.0000000000
     33694      5584  TIP3      H2             59.7334198818       60.2641602828       22.1792508915  TIP3      5448            0.0000000000
     33695      5585  TIP3      OH2            65.0982253520       56.0648875387       18.8036013136  TIP3      5449            0.0000000000
     33696      5585  TIP3      H1             65.6835544428       56.5054124466       19.4359127747  TIP3      5449            0.0000000000
     33697      5585  TIP3      H2             64.8075720973       56.7455899396       18.1710164144  TIP3      5449            0.0000000000
     33698      5586  TIP3      OH2            57.4724996598       61.3446957076       19.7150271008  TIP3      5450            0.0000000000
     33699      5586  TIP3      H1             58.0798119884       61.3617596251       20.4916099383  TIP3      5450            0.0000000000
     33700      5586  TIP3      H2             57.1813278689       60.4059359886       19.7317969536  TIP3      5450            0.0000000000
     33701      5587  TIP3      OH2            58.2818737875       59.8613659995       13.9816535263  TIP3      5451            0.0000000000
     33702      5587  TIP3      H1             58.5735986126       58.9309141580       13.8805416398  TIP3      5451            0.0000000000
     33703      5587  TIP3      H2             59.0959561288       60.3530065268       13.7664293379  TIP3      5451            0.0000000000
     33704      5588  TIP3      OH2            57.2451178380       63.2945505827       14.2362359068  TIP3      5452            0.0000000000
     33705      5588  TIP3      H1             57.7191011847       63.0435885330       13.4095961322  TIP3      5452            0.0000000000
     33706      5588  TIP3      H2             57.9694561612       63.1568280447       14.8699217563  TIP3      5452            0.0000000000
     33707      5589  TIP3      OH2            57.3165322221       58.8845851234        7.8251765954  TIP3      5453            0.0000000000
     33708      5589  TIP3      H1             56.4473942626       58.5070814694        7.6291502212  TIP3      5453            0.0000000000
     33709      5589  TIP3      H2             57.3263289178       59.7215269903        7.3142255300  TIP3      5453            0.0000000000
     33710      5590  TIP3      OH2            56.6736394671       57.7247949832       16.3078560449  TIP3      5454            0.0000000000
     33711      5590  TIP3      H1             56.1551441270       57.2430629847       16.9815151275  TIP3      5454            0.0000000000
     33712      5590  TIP3      H2             56.1081995307       58.4708310474       16.0488273699  TIP3      5454            0.0000000000
     33713      5591  TIP3      OH2            59.5311007818       56.9984836842       10.5827096351  TIP3      5455            0.0000000000
     33714      5591  TIP3      H1             58.6066042606       56.9047747253       10.2642233024  TIP3      5455            0.0000000000
     33715      5591  TIP3      H2             59.9096581408       56.1113801765       10.3832175614  TIP3      5455            0.0000000000
     33716      5592  TIP3      OH2            58.3781016479       57.0496835156        5.7733818710  TIP3      5456            0.0000000000
     33717      5592  TIP3      H1             59.0173081347       57.7123920055        5.4263289971  TIP3      5456            0.0000000000
     33718      5592  TIP3      H2             58.1219604766       57.4006390541        6.6473832238  TIP3      5456            0.0000000000
     33719      5593  TIP3      OH2            63.7863756009       57.0033257454       10.4207796698  TIP3      5457            0.0000000000
     33720      5593  TIP3      H1             64.5799452937       57.3149252043        9.9585759951  TIP3      5457            0.0000000000
     33721      5593  TIP3      H2             64.0576575699       57.1430791639       11.3614029363  TIP3      5457            0.0000000000
     33722      5594  TIP3      OH2            60.2610544616       58.6276769191        4.4535834711  TIP3      5458            0.0000000000
     33723      5594  TIP3      H1             60.8264820163       57.9610188011        4.0329220315  TIP3      5458            0.0000000000
     33724      5594  TIP3      H2             60.9021576470       59.2452098904        4.8638319240  TIP3      5458            0.0000000000
     33725      5595  TIP3      OH2            64.3259910154       58.1301608231        7.1392011652  TIP3      5459            0.0000000000
     33726      5595  TIP3      H1             65.0918065653       57.8266005938        7.6629964024  TIP3      5459            0.0000000000
     33727      5595  TIP3      H2             64.7361256333       58.8104077137        6.6058360567  TIP3      5459            0.0000000000
     33728      5596  TIP3      OH2            59.1926079673       58.0394564857       19.6552410209  TIP3      5460            0.0000000000
     33729      5596  TIP3      H1             58.5081753099       57.3542034510       19.7686890390  TIP3      5460            0.0000000000
     33730      5596  TIP3      H2             59.8901988646       57.7223050551       20.2645995093  TIP3      5460            0.0000000000
     33731      5597  TIP3      OH2            61.2883402662       56.9763308024       21.6937152500  TIP3      5461            0.0000000000
     33732      5597  TIP3      H1             62.1871033727       57.3175275909       21.5639716731  TIP3      5461            0.0000000000
     33733      5597  TIP3      H2             61.4805466794       56.0177200262       21.7411031104  TIP3      5461            0.0000000000
     33734      5598  TIP3      OH2            17.7493138416       15.1322191531       23.1208178729  TIP3      5462            0.0000000000
     33735      5598  TIP3      H1             17.5742286512       15.8939171956       23.7161303798  TIP3      5462            0.0000000000
     33736      5598  TIP3      H2             18.6346948643       14.8696154418       23.4163404158  TIP3      5462            0.0000000000
     33737      5599  TIP3      OH2            13.1019434834       17.1430560425       23.5961284896  TIP3      5463            0.0000000000
     33738      5599  TIP3      H1             13.8255906844       16.6780117161       23.1512549074  TIP3      5463            0.0000000000
     33739      5599  TIP3      H2             13.5687196038       17.9650189227       23.9193395463  TIP3      5463            0.0000000000
     33740      5600  TIP3      OH2            14.8014501594        9.8432235429       23.4774793902  TIP3      5464            0.0000000000
     33741      5600  TIP3      H1             14.4091978161        9.0298331648       23.1085316735  TIP3      5464            0.0000000000
     33742      5600  TIP3      H2             15.6735580245        9.8475894340       23.0450178382  TIP3      5464            0.0000000000
     33743      5601  TIP3      OH2             0.6146672405        3.3637529682       24.6207215661  TIP3      5465            0.0000000000
     33744      5601  TIP3      H1              1.3767242505        3.7248810821       25.0972735687  TIP3      5465            0.0000000000
     33745      5601  TIP3      H2             -0.1203803070        3.6692081195       25.1960716481  TIP3      5465            0.0000000000
     33746      5602  TIP3      OH2             5.4899533520        6.7138159659       23.6116715928  TIP3      5466            0.0000000000
     33747      5602  TIP3      H1              5.4084521918        6.6566244073       22.6389820479  TIP3      5466            0.0000000000
     33748      5602  TIP3      H2              6.3510287808        7.1429856580       23.7285337192  TIP3      5466            0.0000000000
     33749      5603  TIP3      OH2            12.4756117005        4.3178000165       23.2359372948  TIP3      5467            0.0000000000
     33750      5603  TIP3      H1             11.8247575958        4.7716187256       23.8060196662  TIP3      5467            0.0000000000
     33751      5603  TIP3      H2             12.9674509815        5.1199387380       22.9509556357  TIP3      5467            0.0000000000
     33752      5604  TIP3      OH2             2.9920299787        8.9588759654       22.6736562973  TIP3      5468            0.0000000000
     33753      5604  TIP3      H1              3.7696836535        9.0994788553       23.2300268999  TIP3      5468            0.0000000000
     33754      5604  TIP3      H2              2.5569086971        8.2520630306       23.1817716634  TIP3      5468            0.0000000000
     33755      5605  TIP3      OH2             8.3070135752       13.7727690420       21.7985768595  TIP3      5469            0.0000000000
     33756      5605  TIP3      H1              7.8514660384       13.8048452720       20.9449448543  TIP3      5469            0.0000000000
     33757      5605  TIP3      H2              8.6365562860       12.8628196610       21.7551502805  TIP3      5469            0.0000000000
     33758      5606  TIP3      OH2             3.8677727571       10.1283167351       25.5831413601  TIP3      5470            0.0000000000
     33759      5606  TIP3      H1              4.0349148574       11.0407422256       25.8275256509  TIP3      5470            0.0000000000
     33760      5606  TIP3      H2              4.7762589673        9.7538079389       25.6716392548  TIP3      5470            0.0000000000
     33761      5607  TIP3      OH2             9.6102250457       14.7431485524       24.9732952472  TIP3      5471            0.0000000000
     33762      5607  TIP3      H1              8.8991288286       15.2300217265       25.4210523867  TIP3      5471            0.0000000000
     33763      5607  TIP3      H2             10.0208566972       15.5350804262       24.5723528351  TIP3      5471            0.0000000000
     33764      5608  TIP3      OH2             2.4051404601        6.0060314298       23.9160043186  TIP3      5472            0.0000000000
     33765      5608  TIP3      H1              3.3537159580        5.8150021629       23.8512498325  TIP3      5472            0.0000000000
     33766      5608  TIP3      H2              2.0942789408        5.8971056418       23.0155064823  TIP3      5472            0.0000000000
     33767      5609  TIP3      OH2            10.1636924471       16.1418133389       21.8506097012  TIP3      5473            0.0000000000
     33768      5609  TIP3      H1              9.7831014083       15.2473486741       21.9594645285  TIP3      5473            0.0000000000
     33769      5609  TIP3      H2             11.0536777982       15.9308299699       21.4778407504  TIP3      5473            0.0000000000
     33770      5610  TIP3      OH2            14.8805736299       15.3714563690       22.1343970609  TIP3      5474            0.0000000000
     33771      5610  TIP3      H1             15.5866168427       15.1832470520       22.7825289654  TIP3      5474            0.0000000000
     33772      5610  TIP3      H2             15.4586148626       15.6343276470       21.3870047667  TIP3      5474            0.0000000000
     33773      5611  TIP3      OH2            11.0931120493       12.7089810384       21.4271791367  TIP3      5475            0.0000000000
     33774      5611  TIP3      H1             10.6856170537       12.4319617107       22.2502777881  TIP3      5475            0.0000000000
     33775      5611  TIP3      H2             11.3957939365       11.8179033205       21.1202327951  TIP3      5475            0.0000000000
     33776      5612  TIP3      OH2             7.9132522436        7.6946196931       22.2894169426  TIP3      5476            0.0000000000
     33777      5612  TIP3      H1              7.9070438182        8.2439823279       21.4778118732  TIP3      5476            0.0000000000
     33778      5612  TIP3      H2              8.4919054260        8.1971611929       22.8828159549  TIP3      5476            0.0000000000
     33779      5613  TIP3      OH2            17.2293623007       10.0679997224       21.9422769346  TIP3      5477            0.0000000000
     33780      5613  TIP3      H1             17.0709249166        9.8315098090       21.0048915463  TIP3      5477            0.0000000000
     33781      5613  TIP3      H2             17.3201700549       11.0537094959       21.9101565321  TIP3      5477            0.0000000000
     33782      5614  TIP3      OH2             1.8435096718       12.7823668995       22.9300971843  TIP3      5478            0.0000000000
     33783      5614  TIP3      H1              1.1856976966       13.4873811297       22.9936796027  TIP3      5478            0.0000000000
     33784      5614  TIP3      H2              1.4623996591       12.2337359339       22.2238218502  TIP3      5478            0.0000000000
     33785      5615  TIP3      OH2            18.6132185182        9.2757350483       24.1047033449  TIP3      5479            0.0000000000
     33786      5615  TIP3      H1             18.1068765697        9.5058672148       23.2936653603  TIP3      5479            0.0000000000
     33787      5615  TIP3      H2             18.2909635027        8.3493813335       24.1647652400  TIP3      5479            0.0000000000
     33788      5616  TIP3      OH2            17.5537453276        6.8799753968       23.4074771264  TIP3      5480            0.0000000000
     33789      5616  TIP3      H1             17.4850425101        6.8990297056       22.4394933817  TIP3      5480            0.0000000000
     33790      5616  TIP3      H2             17.0240444490        6.0875109943       23.6099320961  TIP3      5480            0.0000000000
     33791      5617  TIP3      OH2            16.6614248364        4.1289751068       22.4320795744  TIP3      5481            0.0000000000
     33792      5617  TIP3      H1             16.0080825740        3.8012673602       23.0633343178  TIP3      5481            0.0000000000
     33793      5617  TIP3      H2             16.6194218526        3.4690395568       21.7201106232  TIP3      5481            0.0000000000
     33794      5618  TIP3      OH2            10.0681561367       17.4036437753       24.3140752576  TIP3      5482            0.0000000000
     33795      5618  TIP3      H1             10.9274738440       17.8621661477       24.3005514130  TIP3      5482            0.0000000000
     33796      5618  TIP3      H2              9.9634467784       17.2376297627       23.3579583936  TIP3      5482            0.0000000000
     33797      5619  TIP3      OH2            37.8510020795       14.2967458300       22.8879650215  TIP3      5483            0.0000000000
     33798      5619  TIP3      H1             37.5340290820       15.2141454063       23.0620909748  TIP3      5483            0.0000000000
     33799      5619  TIP3      H2             38.3845432003       14.1693201553       23.6802518905  TIP3      5483            0.0000000000
     33800      5620  TIP3      OH2            28.6236622386        3.0054334882       23.1935612858  TIP3      5484            0.0000000000
     33801      5620  TIP3      H1             28.2786780135        3.0920124673       24.1132778636  TIP3      5484            0.0000000000
     33802      5620  TIP3      H2             27.9110724797        2.4585330709       22.8376069587  TIP3      5484            0.0000000000
     33803      5621  TIP3      OH2            25.2931628899        3.8390666394       22.2752852427  TIP3      5485            0.0000000000
     33804      5621  TIP3      H1             25.4082296358        4.0459495450       23.2387132913  TIP3      5485            0.0000000000
     33805      5621  TIP3      H2             24.9378443290        4.6804862618       21.9373342994  TIP3      5485            0.0000000000
     33806      5622  TIP3      OH2            23.7452937433        6.3986667276       24.0521852262  TIP3      5486            0.0000000000
     33807      5622  TIP3      H1             24.1215760461        6.4186200974       23.1566995143  TIP3      5486            0.0000000000
     33808      5622  TIP3      H2             24.3362479320        5.7323626450       24.4933673011  TIP3      5486            0.0000000000
     33809      5623  TIP3      OH2            31.0878535025        4.4488111100       23.7063788605  TIP3      5487            0.0000000000
     33810      5623  TIP3      H1             30.2604332032        3.9147694158       23.7266169600  TIP3      5487            0.0000000000
     33811      5623  TIP3      H2             31.6444917059        3.8612292289       23.1445758475  TIP3      5487            0.0000000000
     33812      5624  TIP3      OH2            29.8379266335       13.3102995726       24.3276631666  TIP3      5488            0.0000000000
     33813      5624  TIP3      H1             30.1060224696       14.2290842044       24.5197930584  TIP3      5488            0.0000000000
     33814      5624  TIP3      H2             29.5117422677       13.0759244536       25.2071376274  TIP3      5488            0.0000000000
     33815      5625  TIP3      OH2            21.2432044948        8.7138351893       23.5734171852  TIP3      5489            0.0000000000
     33816      5625  TIP3      H1             21.7942517833        9.2592301957       24.1757450814  TIP3      5489            0.0000000000
     33817      5625  TIP3      H2             20.3469118663        9.0309851187       23.7970695654  TIP3      5489            0.0000000000
     33818      5626  TIP3      OH2            37.4503751216       16.8606094169       23.2869056426  TIP3      5490            0.0000000000
     33819      5626  TIP3      H1             38.0186060239       17.6448153129       23.3685901654  TIP3      5490            0.0000000000
     33820      5626  TIP3      H2             36.9874715532       16.9174577151       24.1668067671  TIP3      5490            0.0000000000
     33821      5627  TIP3      OH2            27.5727093844       14.2088011165       21.8546463912  TIP3      5491            0.0000000000
     33822      5627  TIP3      H1             27.4513655291       13.4408326629       21.2652789048  TIP3      5491            0.0000000000
     33823      5627  TIP3      H2             27.1281488620       13.8823428088       22.6417164830  TIP3      5491            0.0000000000
     33824      5628  TIP3      OH2            21.2825223813        5.7688580764       22.9924286735  TIP3      5492            0.0000000000
     33825      5628  TIP3      H1             21.9975159249        5.9123750028       23.6502146141  TIP3      5492            0.0000000000
     33826      5628  TIP3      H2             20.7952679203        6.6040839632       23.0865626666  TIP3      5492            0.0000000000
     33827      5629  TIP3      OH2            29.6818887952       16.2514322116       22.1685956160  TIP3      5493            0.0000000000
     33828      5629  TIP3      H1             29.1150149052       15.4685404966       22.2910490913  TIP3      5493            0.0000000000
     33829      5629  TIP3      H2             30.4784624802       15.8603537167       21.7537294472  TIP3      5493            0.0000000000
     33830      5630  TIP3      OH2            34.2518702087       15.5420817944       22.1111698748  TIP3      5494            0.0000000000
     33831      5630  TIP3      H1             34.5387965290       15.7274837562       23.0210306817  TIP3      5494            0.0000000000
     33832      5630  TIP3      H2             35.0143827087       15.7833370898       21.5503121843  TIP3      5494            0.0000000000
     33833      5631  TIP3      OH2            31.1341662563       12.7629810072       21.8758517803  TIP3      5495            0.0000000000
     33834      5631  TIP3      H1             30.5888238315       12.8448061416       22.6845708674  TIP3      5495            0.0000000000
     33835      5631  TIP3      H2             30.9694806594       11.8286005193       21.6250568192  TIP3      5495            0.0000000000
     33836      5632  TIP3      OH2            27.1796770306        8.2467290668       22.4019314906  TIP3      5496            0.0000000000
     33837      5632  TIP3      H1             26.8314762739        7.4326456373       22.0084941193  TIP3      5496            0.0000000000
     33838      5632  TIP3      H2             27.9810124765        8.3819195019       21.8838526279  TIP3      5496            0.0000000000
     33839      5633  TIP3      OH2            20.5472719696       12.9321337692       22.6944981660  TIP3      5497            0.0000000000
     33840      5633  TIP3      H1             21.4062075446       12.7456822375       23.1417379544  TIP3      5497            0.0000000000
     33841      5633  TIP3      H2             20.4088647243       12.1302521638       22.1452876063  TIP3      5497            0.0000000000
     33842      5634  TIP3      OH2            22.7946495539       17.7792104254       22.4257868256  TIP3      5498            0.0000000000
     33843      5634  TIP3      H1             21.9075997675       17.5047541101       22.7054748451  TIP3      5498            0.0000000000
     33844      5634  TIP3      H2             23.3140304949       16.9723422782       22.5353226109  TIP3      5498            0.0000000000
     33845      5635  TIP3      OH2            54.5465991505        0.9646143119       25.0595699784  TIP3      5499            0.0000000000
     33846      5635  TIP3      H1             54.1497719073        0.3933220684       24.3630520953  TIP3      5499            0.0000000000
     33847      5635  TIP3      H2             55.0763990724        1.5713550954       24.4975187298  TIP3      5499            0.0000000000
     33848      5636  TIP3      OH2            54.5670750833       14.6629830957       23.3760850442  TIP3      5500            0.0000000000
     33849      5636  TIP3      H1             54.4959645131       14.9651577486       24.2934651070  TIP3      5500            0.0000000000
     33850      5636  TIP3      H2             55.4367905395       15.0206662411       23.1403145090  TIP3      5500            0.0000000000
     33851      5637  TIP3      OH2            52.1387477108       10.3320947646       23.0361593588  TIP3      5501            0.0000000000
     33852      5637  TIP3      H1             52.2228900094       10.0921000030       22.0881650731  TIP3      5501            0.0000000000
     33853      5637  TIP3      H2             52.7836609861        9.7156783202       23.4473132077  TIP3      5501            0.0000000000
     33854      5638  TIP3      OH2            47.6026923954        3.0865661406       23.5200415276  TIP3      5502            0.0000000000
     33855      5638  TIP3      H1             46.7988153590        3.6214838947       23.5969793272  TIP3      5502            0.0000000000
     33856      5638  TIP3      H2             47.2630382289        2.4771135784       22.8256315075  TIP3      5502            0.0000000000
     33857      5639  TIP3      OH2            44.3182602345        3.9383606846       22.6323193427  TIP3      5503            0.0000000000
     33858      5639  TIP3      H1             43.5205093969        3.7012817171       23.1450725408  TIP3      5503            0.0000000000
     33859      5639  TIP3      H2             43.9487186270        4.6209842987       22.0277069745  TIP3      5503            0.0000000000
     33860      5640  TIP3      OH2            40.5278060677        9.2034457322       23.9871746350  TIP3      5504            0.0000000000
     33861      5640  TIP3      H1             40.2484981659        8.3692229880       24.4149471353  TIP3      5504            0.0000000000
     33862      5640  TIP3      H2             39.7199917295        9.7298291245       23.9167346851  TIP3      5504            0.0000000000
     33863      5641  TIP3      OH2            51.7747817629       13.0310635735       23.2512955725  TIP3      5505            0.0000000000
     33864      5641  TIP3      H1             52.2641379819       12.7963461835       24.0492230213  TIP3      5505            0.0000000000
     33865      5641  TIP3      H2             51.6623153739       12.1239625716       22.8895488719  TIP3      5505            0.0000000000
     33866      5642  TIP3      OH2            48.4539903838       16.1227538922       22.1914287305  TIP3      5506            0.0000000000
     33867      5642  TIP3      H1             47.8514158147       15.3703857902       22.3292237912  TIP3      5506            0.0000000000
     33868      5642  TIP3      H2             49.1508482960       15.7151037027       21.6450177965  TIP3      5506            0.0000000000
     33869      5643  TIP3      OH2            52.4019571465       15.5125804480       21.7546726351  TIP3      5507            0.0000000000
     33870      5643  TIP3      H1             53.0101974411       15.2119035384       22.4567036272  TIP3      5507            0.0000000000
     33871      5643  TIP3      H2             53.0335682835       15.6302781381       21.0175250185  TIP3      5507            0.0000000000
     33872      5644  TIP3      OH2            48.7202885712       12.8726821046       21.1880877329  TIP3      5508            0.0000000000
     33873      5644  TIP3      H1             47.7934999805       12.7371397105       21.4359787425  TIP3      5508            0.0000000000
     33874      5644  TIP3      H2             49.0233648507       11.9338687373       21.2635852506  TIP3      5508            0.0000000000
     33875      5645  TIP3      OH2            45.1691668245        9.5380253756       24.6159564835  TIP3      5509            0.0000000000
     33876      5645  TIP3      H1             44.3443629826        9.1512415813       24.3074141425  TIP3      5509            0.0000000000
     33877      5645  TIP3      H2             45.7664606284        9.0766435189       23.9901311819  TIP3      5509            0.0000000000
     33878      5646  TIP3      OH2            46.2754500470        7.8897822668       22.8249608096  TIP3      5510            0.0000000000
     33879      5646  TIP3      H1             45.7964912728        7.2242488315       22.3008476681  TIP3      5510            0.0000000000
     33880      5646  TIP3      H2             46.8748666016        8.2851638663       22.1718590947  TIP3      5510            0.0000000000
     33881      5647  TIP3      OH2            55.1307925166        9.7885231353       22.4231899791  TIP3      5511            0.0000000000
     33882      5647  TIP3      H1             54.8385726655        9.5619936621       21.5248212930  TIP3      5511            0.0000000000
     33883      5647  TIP3      H2             55.0067871204       10.7656067866       22.3945724351  TIP3      5511            0.0000000000
     33884      5648  TIP3      OH2            45.7633519080       19.2344473135       24.6158381936  TIP3      5512            0.0000000000
     33885      5648  TIP3      H1             45.8626969222       18.2994658705       24.3673720392  TIP3      5512            0.0000000000
     33886      5648  TIP3      H2             44.8314870276       19.2865969994       24.8669814089  TIP3      5512            0.0000000000
     33887      5649  TIP3      OH2            40.3063515751       12.4680459556       22.6755478741  TIP3      5513            0.0000000000
     33888      5649  TIP3      H1             40.3667672313       13.1686187823       21.9893860319  TIP3      5513            0.0000000000
     33889      5649  TIP3      H2             39.5547368495       11.9427284320       22.3076380842  TIP3      5513            0.0000000000
     33890      5650  TIP3      OH2            55.5406061540        6.1598234851       22.2266365357  TIP3      5514            0.0000000000
     33891      5650  TIP3      H1             55.6785388326        7.0973945635       22.4405659265  TIP3      5514            0.0000000000
     33892      5650  TIP3      H2             54.8436102765        6.1694235066       21.5569281784  TIP3      5514            0.0000000000
     33893      5651  TIP3      OH2            53.5032892722        3.3288545021       21.7480621908  TIP3      5515            0.0000000000
     33894      5651  TIP3      H1             54.0961725882        3.4527440742       22.4978471861  TIP3      5515            0.0000000000
     33895      5651  TIP3      H2             52.7785051194        2.7992152121       22.1358640835  TIP3      5515            0.0000000000
     33896      5652  TIP3      OH2            56.0098640778        2.5412654154       23.4332078183  TIP3      5516            0.0000000000
     33897      5652  TIP3      H1             56.6857483849        1.9707167066       22.9958617439  TIP3      5516            0.0000000000
     33898      5652  TIP3      H2             56.3718199848        3.4365390231       23.3328842934  TIP3      5516            0.0000000000
     33899      5653  TIP3      OH2            39.8613798970        0.6423117706       24.8725819641  TIP3      5517            0.0000000000
     33900      5653  TIP3      H1             40.6426494232        1.2000723569       24.7716436491  TIP3      5517            0.0000000000
     33901      5653  TIP3      H2             39.1830807487        1.3256610089       24.9017999753  TIP3      5517            0.0000000000
     33902      5654  TIP3      OH2            41.2405957932       16.9316602506       22.0516634369  TIP3      5518            0.0000000000
     33903      5654  TIP3      H1             41.1399724166       16.9342036013       23.0154412837  TIP3      5518            0.0000000000
     33904      5654  TIP3      H2             42.1968952411       16.7162537719       21.9832719430  TIP3      5518            0.0000000000
     33905      5655  TIP3      OH2            63.2787946069        3.8590234109       22.5447275289  TIP3      5519            0.0000000000
     33906      5655  TIP3      H1             62.9804894751        3.6721250557       23.4624389660  TIP3      5519            0.0000000000
     33907      5655  TIP3      H2             62.6137338941        4.5283837872       22.2965527131  TIP3      5519            0.0000000000
     33908      5656  TIP3      OH2            62.2163999637        6.6459603751       23.4523538859  TIP3      5520            0.0000000000
     33909      5656  TIP3      H1             62.2394569549        6.8279073231       22.5053463698  TIP3      5520            0.0000000000
     33910      5656  TIP3      H2             63.0942737602        6.3154421901       23.6716631430  TIP3      5520            0.0000000000
     33911      5657  TIP3      OH2            65.3041991648       13.7130790613       22.0120009793  TIP3      5521            0.0000000000
     33912      5657  TIP3      H1             64.8826887152       13.2429716851       21.2713932561  TIP3      5521            0.0000000000
     33913      5657  TIP3      H2             64.8192760031       13.3517518969       22.7716918954  TIP3      5521            0.0000000000
     33914      5658  TIP3      OH2            63.8517779660       13.3492354633       24.5519231768  TIP3      5522            0.0000000000
     33915      5658  TIP3      H1             63.7300788399       13.3908666429       25.5098254437  TIP3      5522            0.0000000000
     33916      5658  TIP3      H2             63.9515535354       14.3235269087       24.4148196090  TIP3      5522            0.0000000000
     33917      5659  TIP3      OH2            63.3264309827       16.0239643230       24.4215848387  TIP3      5523            0.0000000000
     33918      5659  TIP3      H1             63.6849794345       16.8111281730       23.9713239863  TIP3      5523            0.0000000000
     33919      5659  TIP3      H2             63.1733027927       16.3866997368       25.3264931547  TIP3      5523            0.0000000000
     33920      5660  TIP3      OH2            61.7238993563        3.8297445634       24.7331800286  TIP3      5524            0.0000000000
     33921      5660  TIP3      H1             61.7585491369        4.6685301628       25.2340440642  TIP3      5524            0.0000000000
     33922      5660  TIP3      H2             62.3934331625        3.2778241823       25.2159884058  TIP3      5524            0.0000000000
     33923      5661  TIP3      OH2            65.0961206354        7.6755799074       22.6807678747  TIP3      5525            0.0000000000
     33924      5661  TIP3      H1             64.9799048083        7.4364852315       21.7440557647  TIP3      5525            0.0000000000
     33925      5661  TIP3      H2             65.1527653293        6.7980206960       23.0855641691  TIP3      5525            0.0000000000
     33926      5662  TIP3      OH2            64.0917014111       18.1270222489       22.7316908724  TIP3      5526            0.0000000000
     33927      5662  TIP3      H1             64.6233622098       18.5732021227       22.0590565015  TIP3      5526            0.0000000000
     33928      5662  TIP3      H2             63.4429331591       18.8060756208       22.9783463928  TIP3      5526            0.0000000000
     33929      5663  TIP3      OH2            60.2185651780        2.3858089564       23.0998718534  TIP3      5527            0.0000000000
     33930      5663  TIP3      H1             60.8514729391        1.6615354716       22.9430438378  TIP3      5527            0.0000000000
     33931      5663  TIP3      H2             60.6628248136        2.9002710205       23.8197454337  TIP3      5527            0.0000000000
     33932      5664  TIP3      OH2            10.6135036327       26.7282894740       22.6094153502  TIP3      5528            0.0000000000
     33933      5664  TIP3      H1             10.6038182695       26.9890163198       23.5581207040  TIP3      5528            0.0000000000
     33934      5664  TIP3      H2             11.4063345872       26.1458158717       22.6312825238  TIP3      5528            0.0000000000
     33935      5665  TIP3      OH2            13.4549269171       36.8913452130       23.8901438914  TIP3      5529            0.0000000000
     33936      5665  TIP3      H1             13.8859647888       36.0568885619       24.0841786711  TIP3      5529            0.0000000000
     33937      5665  TIP3      H2             13.2757545242       37.2038055667       24.8149698968  TIP3      5529            0.0000000000
     33938      5666  TIP3      OH2            14.2765257094       28.6932575814       23.2803349829  TIP3      5530            0.0000000000
     33939      5666  TIP3      H1             14.2486970997       28.7799645883       22.3097940409  TIP3      5530            0.0000000000
     33940      5666  TIP3      H2             14.5920827982       27.7795857524       23.3518239756  TIP3      5530            0.0000000000
     33941      5667  TIP3      OH2             6.5216391872       22.3427805282       22.7407054287  TIP3      5531            0.0000000000
     33942      5667  TIP3      H1              7.1164614329       22.9227419454       23.2270834013  TIP3      5531            0.0000000000
     33943      5667  TIP3      H2              6.1502649393       22.9850632239       22.0797751605  TIP3      5531            0.0000000000
     33944      5668  TIP3      OH2            12.3610807328       23.0444486752       23.9279006076  TIP3      5532            0.0000000000
     33945      5668  TIP3      H1             11.7649533830       22.4477382768       24.4428173172  TIP3      5532            0.0000000000
     33946      5668  TIP3      H2             12.9798491482       23.3141690079       24.6211647651  TIP3      5532            0.0000000000
     33947      5669  TIP3      OH2             1.9749837184       27.8163739031       24.0555676167  TIP3      5533            0.0000000000
     33948      5669  TIP3      H1              2.2404702239       28.7184045843       23.8487530919  TIP3      5533            0.0000000000
     33949      5669  TIP3      H2              1.3342871460       28.0212844793       24.7777727724  TIP3      5533            0.0000000000
     33950      5670  TIP3      OH2            18.1544222034       35.4676814676       23.1519669517  TIP3      5534            0.0000000000
     33951      5670  TIP3      H1             18.6936487461       36.0059234452       22.5511012883  TIP3      5534            0.0000000000
     33952      5670  TIP3      H2             17.8214311163       36.1389260016       23.7560408484  TIP3      5534            0.0000000000
     33953      5671  TIP3      OH2             8.8087208460       32.7407104329       21.9288717018  TIP3      5535            0.0000000000
     33954      5671  TIP3      H1              8.2542873220       32.3418909645       21.2396194444  TIP3      5535            0.0000000000
     33955      5671  TIP3      H2              8.3284466534       32.4878564760       22.7486075372  TIP3      5535            0.0000000000
     33956      5672  TIP3      OH2             7.6940049439       32.6240620450       24.3647831524  TIP3      5536            0.0000000000
     33957      5672  TIP3      H1              6.7848476986       32.5065707539       24.6861780664  TIP3      5536            0.0000000000
     33958      5672  TIP3      H2              7.7961052830       33.5802475121       24.5324622144  TIP3      5536            0.0000000000
     33959      5673  TIP3      OH2             7.7405773387       35.4790641010       25.0511203001  TIP3      5537            0.0000000000
     33960      5673  TIP3      H1              7.0850420005       35.7864719691       24.4111101438  TIP3      5537            0.0000000000
     33961      5673  TIP3      H2              7.1405003609       35.0759899186       25.7221931167  TIP3      5537            0.0000000000
     33962      5674  TIP3      OH2            10.2028106847       35.0098500086       22.0855272212  TIP3      5538            0.0000000000
     33963      5674  TIP3      H1              9.6904831455       34.1674734657       22.1409277095  TIP3      5538            0.0000000000
     33964      5674  TIP3      H2             11.0738928481       34.6630126427       21.7997728576  TIP3      5538            0.0000000000
     33965      5675  TIP3      OH2            14.7507544400       34.2105900752       21.7942635635  TIP3      5539            0.0000000000
     33966      5675  TIP3      H1             15.3014628088       34.2149005424       22.5833409920  TIP3      5539            0.0000000000
     33967      5675  TIP3      H2             15.4147448790       34.3914147987       21.0913355876  TIP3      5539            0.0000000000
     33968      5676  TIP3      OH2             5.8291911854       29.9500780342       21.9927981918  TIP3      5540            0.0000000000
     33969      5676  TIP3      H1              6.0328058106       29.4588220030       22.8140185757  TIP3      5540            0.0000000000
     33970      5676  TIP3      H2              6.6371124546       29.7279573424       21.4901523586  TIP3      5540            0.0000000000
     33971      5677  TIP3      OH2            11.2983947221       31.6163554175       21.8503253616  TIP3      5541            0.0000000000
     33972      5677  TIP3      H1             10.3276903517       31.7073539569       21.8844599841  TIP3      5541            0.0000000000
     33973      5677  TIP3      H2             11.3850388707       30.6346075735       21.7883207623  TIP3      5541            0.0000000000
     33974      5678  TIP3      OH2             6.5951302141       28.1519061262       24.2767333496  TIP3      5542            0.0000000000
     33975      5678  TIP3      H1              7.1292008992       27.6260621914       24.9035534250  TIP3      5542            0.0000000000
     33976      5678  TIP3      H2              6.9362270906       27.7132898720       23.4655847479  TIP3      5542            0.0000000000
     33977      5679  TIP3      OH2             7.6268944988       26.8689581847       22.2768033112  TIP3      5543            0.0000000000
     33978      5679  TIP3      H1              7.4770679169       26.7447388962       21.3196899919  TIP3      5543            0.0000000000
     33979      5679  TIP3      H2              8.5612157106       26.6149548518       22.4076150594  TIP3      5543            0.0000000000
     33980      5680  TIP3      OH2            16.4401212403       25.0985369336       22.3559826139  TIP3      5544            0.0000000000
     33981      5680  TIP3      H1             16.0234464407       24.6970083165       21.5602819746  TIP3      5544            0.0000000000
     33982      5680  TIP3      H2             16.4141349529       24.3321167916       22.9576206822  TIP3      5544            0.0000000000
     33983      5681  TIP3      OH2            16.2230018205       22.2205514575       22.7372753974  TIP3      5545            0.0000000000
     33984      5681  TIP3      H1             16.9327683375       21.8956423670       23.3415569447  TIP3      5545            0.0000000000
     33985      5681  TIP3      H2             15.5260756038       21.5646771313       22.9778825118  TIP3      5545            0.0000000000
     33986      5682  TIP3      OH2            18.1616464618       21.0392329812       24.0893568104  TIP3      5546            0.0000000000
     33987      5682  TIP3      H1             18.3830471354       20.1889664057       24.4947082531  TIP3      5546            0.0000000000
     33988      5682  TIP3      H2             18.5201273365       21.6614981511       24.7637624290  TIP3      5546            0.0000000000
     33989      5683  TIP3      OH2             4.3623589541       20.9282384076       23.6197806564  TIP3      5547            0.0000000000
     33990      5683  TIP3      H1              4.3533853166       20.1519827750       23.0264096928  TIP3      5547            0.0000000000
     33991      5683  TIP3      H2              5.0717420640       21.4312323678       23.1636522210  TIP3      5547            0.0000000000
     33992      5684  TIP3      OH2            32.3513324203       27.7475508459       24.9012710783  TIP3      5548            0.0000000000
     33993      5684  TIP3      H1             32.0515674358       26.8836341781       24.5473799473  TIP3      5548            0.0000000000
     33994      5684  TIP3      H2             32.7263401483       28.1969329035       24.1288498481  TIP3      5548            0.0000000000
     33995      5685  TIP3      OH2            32.2584139675       35.9779116897       24.1349610523  TIP3      5549            0.0000000000
     33996      5685  TIP3      H1             32.6970234301       35.7532415618       23.2918043826  TIP3      5549            0.0000000000
     33997      5685  TIP3      H2             31.3292434343       36.0837580863       23.8756376193  TIP3      5549            0.0000000000
     33998      5686  TIP3      OH2            33.4725856529       29.3311799553       22.9650761071  TIP3      5550            0.0000000000
     33999      5686  TIP3      H1             33.3081285801       29.0874982917       22.0284820951  TIP3      5550            0.0000000000
     34000      5686  TIP3      H2             34.4484299430       29.1626529637       22.9609553394  TIP3      5550            0.0000000000
     34001      5687  TIP3      OH2            25.5521421804       23.0035697227       23.4763123044  TIP3      5551            0.0000000000
     34002      5687  TIP3      H1             24.7379224314       22.4788191440       23.5150720215  TIP3      5551            0.0000000000
     34003      5687  TIP3      H2             25.6457212283       23.1590215722       22.5271380836  TIP3      5551            0.0000000000
     34004      5688  TIP3      OH2            23.3123958005       25.1528678246       24.0927097421  TIP3      5552            0.0000000000
     34005      5688  TIP3      H1             23.6421448032       24.8759999048       23.2086936559  TIP3      5552            0.0000000000
     34006      5688  TIP3      H2             23.8857660376       25.9193591473       24.2223878760  TIP3      5552            0.0000000000
     34007      5689  TIP3      OH2            30.2961054767       32.2171479351       23.9267694030  TIP3      5553            0.0000000000
     34008      5689  TIP3      H1             30.1631841557       33.1444266534       24.1755729420  TIP3      5553            0.0000000000
     34009      5689  TIP3      H2             29.8486790878       31.7905952125       24.6643594617  TIP3      5553            0.0000000000
     34010      5690  TIP3      OH2            21.7272114688       27.8651073876       23.3553103303  TIP3      5554            0.0000000000
     34011      5690  TIP3      H1             22.0410738432       28.6453243724       23.8529352013  TIP3      5554            0.0000000000
     34012      5690  TIP3      H2             21.2709201993       27.3692122828       24.0514413404  TIP3      5554            0.0000000000
     34013      5691  TIP3      OH2            33.5454322606       32.0113891526       23.2950092551  TIP3      5555            0.0000000000
     34014      5691  TIP3      H1             33.5531226424       31.0352513725       23.1525324702  TIP3      5555            0.0000000000
     34015      5691  TIP3      H2             32.5958830184       32.1501725470       23.4932147046  TIP3      5555            0.0000000000
     34016      5692  TIP3      OH2            27.2225612183       32.9505925680       22.0342215356  TIP3      5556            0.0000000000
     34017      5692  TIP3      H1             27.1011713303       32.9015154036       21.0776378620  TIP3      5556            0.0000000000
     34018      5692  TIP3      H2             26.7711684967       32.1332255695       22.2712683885  TIP3      5556            0.0000000000
     34019      5693  TIP3      OH2            25.2350835270       32.0406378124       24.8217000017  TIP3      5557            0.0000000000
     34020      5693  TIP3      H1             26.1666619980       32.0304477838       25.0780998309  TIP3      5557            0.0000000000
     34021      5693  TIP3      H2             25.2847515380       31.8270660227       23.8728739637  TIP3      5557            0.0000000000
     34022      5694  TIP3      OH2            22.9074457328       29.9872272300       24.9799137846  TIP3      5558            0.0000000000
     34023      5694  TIP3      H1             22.5789012530       30.0203744027       25.8957997372  TIP3      5558            0.0000000000
     34024      5694  TIP3      H2             23.6530836824       30.6055163253       25.0176785853  TIP3      5558            0.0000000000
     34025      5695  TIP3      OH2            20.8718163607       24.8525855341       22.6362391401  TIP3      5559            0.0000000000
     34026      5695  TIP3      H1             21.6125158192       24.9270303838       23.2785749941  TIP3      5559            0.0000000000
     34027      5695  TIP3      H2             20.1158355366       25.0619761048       23.2115670241  TIP3      5559            0.0000000000
     34028      5696  TIP3      OH2            29.2132182928       35.1340664895       21.8402952034  TIP3      5560            0.0000000000
     34029      5696  TIP3      H1             28.6761553035       34.3806871500       22.1630616859  TIP3      5560            0.0000000000
     34030      5696  TIP3      H2             29.9648473273       34.7230098942       21.3739003646  TIP3      5560            0.0000000000
     34031      5697  TIP3      OH2            33.8040326399       34.6060735497       22.1740625392  TIP3      5561            0.0000000000
     34032      5697  TIP3      H1             33.9271987981       33.7805922206       22.6816174484  TIP3      5561            0.0000000000
     34033      5697  TIP3      H2             34.5660430898       34.6214750759       21.5679753279  TIP3      5561            0.0000000000
     34034      5698  TIP3      OH2            25.0042429196       30.7282597536       22.4286109577  TIP3      5562            0.0000000000
     34035      5698  TIP3      H1             24.4631446405       29.9802088663       22.7241007251  TIP3      5562            0.0000000000
     34036      5698  TIP3      H2             25.4920575263       30.3574653516       21.6581491028  TIP3      5562            0.0000000000
     34037      5699  TIP3      OH2            30.2716519246       31.9558345204       21.1631205145  TIP3      5563            0.0000000000
     34038      5699  TIP3      H1             29.9645506138       31.9416107382       22.0893020720  TIP3      5563            0.0000000000
     34039      5699  TIP3      H2             30.5095728390       31.0065662150       21.0767820982  TIP3      5563            0.0000000000
     34040      5700  TIP3      OH2            35.9311190603       28.9958726392       22.1051060737  TIP3      5564            0.0000000000
     34041      5700  TIP3      H1             36.0625513815       28.5438577968       21.2466539330  TIP3      5564            0.0000000000
     34042      5700  TIP3      H2             36.3715690236       29.8523255064       21.9528995436  TIP3      5564            0.0000000000
     34043      5701  TIP3      OH2            26.3086557831       36.7231421400       23.9199526157  TIP3      5565            0.0000000000
     34044      5701  TIP3      H1             27.2424500029       36.6012970227       24.2226457443  TIP3      5565            0.0000000000
     34045      5701  TIP3      H2             26.4069770389       37.5613483161       23.4129273146  TIP3      5565            0.0000000000
     34046      5702  TIP3      OH2            36.0665998404       23.9959322421       22.4229833453  TIP3      5566            0.0000000000
     34047      5702  TIP3      H1             36.3768175453       24.8712849976       22.1542001589  TIP3      5566            0.0000000000
     34048      5702  TIP3      H2             35.3776931522       23.8568433933       21.7543664768  TIP3      5566            0.0000000000
     34049      5703  TIP3      OH2            34.9807649415       21.4913420612       21.8405541609  TIP3      5567            0.0000000000
     34050      5703  TIP3      H1             35.2521519840       21.9456204428       22.6510890197  TIP3      5567            0.0000000000
     34051      5703  TIP3      H2             34.0687351955       21.8307405829       21.6869990820  TIP3      5567            0.0000000000
     34052      5704  TIP3      OH2            23.2888007154       21.3116801771       23.8623758664  TIP3      5568            0.0000000000
     34053      5704  TIP3      H1             23.1538422565       21.0355943278       22.9359728156  TIP3      5568            0.0000000000
     34054      5704  TIP3      H2             23.4301000285       20.4405805632       24.2731203760  TIP3      5568            0.0000000000
     34055      5705  TIP3      OH2            21.5675494037       35.6397456165       22.2398721169  TIP3      5569            0.0000000000
     34056      5705  TIP3      H1             21.8669797713       35.9978135632       23.0777523677  TIP3      5569            0.0000000000
     34057      5705  TIP3      H2             22.4417862845       35.4302729571       21.8260896232  TIP3      5569            0.0000000000
     34058      5706  TIP3      OH2            48.7376258824       27.4781697449       23.2015716218  TIP3      5570            0.0000000000
     34059      5706  TIP3      H1             48.6171643892       27.8197916269       24.1073255241  TIP3      5570            0.0000000000
     34060      5706  TIP3      H2             48.8217494734       26.5158940379       23.3002373312  TIP3      5570            0.0000000000
     34061      5707  TIP3      OH2            56.4700588847       33.7739326916       22.9631741585  TIP3      5571            0.0000000000
     34062      5707  TIP3      H1             56.2405243685       33.8962495482       23.9252151863  TIP3      5571            0.0000000000
     34063      5707  TIP3      H2             57.3871716667       33.5055863724       23.1160469175  TIP3      5571            0.0000000000
     34064      5708  TIP3      OH2            47.5847014359       21.6388625849       22.4592429431  TIP3      5572            0.0000000000
     34065      5708  TIP3      H1             47.1968024285       20.9869103827       23.0479381586  TIP3      5572            0.0000000000
     34066      5708  TIP3      H2             47.0373501686       21.4574763747       21.6739376763  TIP3      5572            0.0000000000
     34067      5709  TIP3      OH2            43.0628456916       25.8937280296       23.4781002348  TIP3      5573            0.0000000000
     34068      5709  TIP3      H1             42.8796306789       25.1683650683       22.8534442697  TIP3      5573            0.0000000000
     34069      5709  TIP3      H2             43.8585987239       26.2738042488       23.0779960312  TIP3      5573            0.0000000000
     34070      5710  TIP3      OH2            49.9532037035       23.5237769997       24.8376163217  TIP3      5574            0.0000000000
     34071      5710  TIP3      H1             49.6196526015       22.9398442987       24.1356243955  TIP3      5574            0.0000000000
     34072      5710  TIP3      H2             50.5110255635       22.9118705958       25.3524498418  TIP3      5574            0.0000000000
     34073      5711  TIP3      OH2            40.1788554349       27.7966896430       23.4513921195  TIP3      5575            0.0000000000
     34074      5711  TIP3      H1             40.6735700203       27.0166901354       23.7534193058  TIP3      5575            0.0000000000
     34075      5711  TIP3      H2             39.3215302434       27.3865849553       23.2868233666  TIP3      5575            0.0000000000
     34076      5712  TIP3      OH2            52.6036016864       32.0357446869       23.7188298195  TIP3      5576            0.0000000000
     34077      5712  TIP3      H1             52.8844818615       32.0499524513       24.6666876194  TIP3      5576            0.0000000000
     34078      5712  TIP3      H2             51.6916820033       31.7237038672       23.8148489624  TIP3      5576            0.0000000000
     34079      5713  TIP3      OH2            46.9840934457       34.4044551841       24.2296814781  TIP3      5577            0.0000000000
     34080      5713  TIP3      H1             46.4977437256       35.2572995853       24.1376566389  TIP3      5577            0.0000000000
     34081      5713  TIP3      H2             47.8671355283       34.7746086351       24.4746976821  TIP3      5577            0.0000000000
     34082      5714  TIP3      OH2            40.0568914130       24.7624540081       22.7630634793  TIP3      5578            0.0000000000
     34083      5714  TIP3      H1             40.7162664348       24.2431977522       23.2599505661  TIP3      5578            0.0000000000
     34084      5714  TIP3      H2             39.3288655196       24.1382473595       22.6738627318  TIP3      5578            0.0000000000
     34085      5715  TIP3      OH2            47.6946051125       34.7167640495       21.5743032457  TIP3      5579            0.0000000000
     34086      5715  TIP3      H1             47.4753723156       34.4808394740       22.5013287262  TIP3      5579            0.0000000000
     34087      5715  TIP3      H2             48.6603353715       34.8639767322       21.6282886642  TIP3      5579            0.0000000000
     34088      5716  TIP3      OH2            52.5499683770       34.2471660381       22.1190225498  TIP3      5580            0.0000000000
     34089      5716  TIP3      H1             52.5649944682       33.3723839565       22.5648412245  TIP3      5580            0.0000000000
     34090      5716  TIP3      H2             53.2625004954       34.1882376675       21.4525514448  TIP3      5580            0.0000000000
     34091      5717  TIP3      OH2            49.0411537272       31.9142856976       21.4014177039  TIP3      5581            0.0000000000
     34092      5717  TIP3      H1             48.1089583001       31.8145872612       21.6344178675  TIP3      5581            0.0000000000
     34093      5717  TIP3      H2             49.3016888061       30.9832426437       21.2493166704  TIP3      5581            0.0000000000
     34094      5718  TIP3      OH2            45.7692405392       26.4549745740       22.4583832988  TIP3      5582            0.0000000000
     34095      5718  TIP3      H1             45.3653352972       26.5164437868       21.5723686718  TIP3      5582            0.0000000000
     34096      5718  TIP3      H2             46.6031457951       26.9371071044       22.3227087131  TIP3      5582            0.0000000000
     34097      5719  TIP3      OH2            55.2085352863       28.6753614408       21.9559024404  TIP3      5583            0.0000000000
     34098      5719  TIP3      H1             55.0889102388       28.5333430542       20.9927186101  TIP3      5583            0.0000000000
     34099      5719  TIP3      H2             55.0199620218       29.6400517979       22.0345534244  TIP3      5583            0.0000000000
     34100      5720  TIP3      OH2            46.0028790770       36.9265705008       23.6486298860  TIP3      5584            0.0000000000
     34101      5720  TIP3      H1             46.3141192762       37.4131109333       24.4452084195  TIP3      5584            0.0000000000
     34102      5720  TIP3      H2             46.0155881413       37.6716687605       23.0182367137  TIP3      5584            0.0000000000
     34103      5721  TIP3      OH2            38.9207400662       31.9081187439       23.1528049503  TIP3      5585            0.0000000000
     34104      5721  TIP3      H1             39.7617168413       31.9411338639       22.6841500802  TIP3      5585            0.0000000000
     34105      5721  TIP3      H2             38.3367255330       31.6323575923       22.4211322369  TIP3      5585            0.0000000000
     34106      5722  TIP3      OH2            55.0530538581       23.0047040729       22.7857362766  TIP3      5586            0.0000000000
     34107      5722  TIP3      H1             55.5609204064       22.4914497511       23.4513235447  TIP3      5586            0.0000000000
     34108      5722  TIP3      H2             54.8444596426       22.3048725435       22.1512168880  TIP3      5586            0.0000000000
     34109      5723  TIP3      OH2            56.7477075052       21.5123736197       24.3505650532  TIP3      5587            0.0000000000
     34110      5723  TIP3      H1             57.2433366947       20.7518119439       23.9886249844  TIP3      5587            0.0000000000
     34111      5723  TIP3      H2             55.9760287631       21.0446198470       24.7137773011  TIP3      5587            0.0000000000
     34112      5724  TIP3      OH2            39.7672660397       19.0324121870       24.5038180345  TIP3      5588            0.0000000000
     34113      5724  TIP3      H1             40.3044604024       19.7395519142       24.9353047223  TIP3      5588            0.0000000000
     34114      5724  TIP3      H2             39.2778397951       18.7470262057       25.3069723660  TIP3      5588            0.0000000000
     34115      5725  TIP3      OH2            41.6747180642       21.9947476906       23.1559982329  TIP3      5589            0.0000000000
     34116      5725  TIP3      H1             42.2050998529       21.2783855475       22.7652767998  TIP3      5589            0.0000000000
     34117      5725  TIP3      H2             41.3354353437       21.5579203248       23.9728333350  TIP3      5589            0.0000000000
     34118      5726  TIP3      OH2            49.2620375014       35.9267735881       24.6454792622  TIP3      5590            0.0000000000
     34119      5726  TIP3      H1             49.1345275498       36.1629622885       25.5895276762  TIP3      5590            0.0000000000
     34120      5726  TIP3      H2             50.0510765727       36.4808236853       24.4986632990  TIP3      5590            0.0000000000
     34121      5727  TIP3      OH2            63.5838456688       23.5004718076       22.8653211530  TIP3      5591            0.0000000000
     34122      5727  TIP3      H1             63.2901657464       22.7771875118       23.4704649901  TIP3      5591            0.0000000000
     34123      5727  TIP3      H2             62.8919514648       23.4867335009       22.1725947833  TIP3      5591            0.0000000000
     34124      5728  TIP3      OH2            61.5948457233       25.6084767054       23.5360530579  TIP3      5592            0.0000000000
     34125      5728  TIP3      H1             61.9001627693       25.1954984866       22.7051827823  TIP3      5592            0.0000000000
     34126      5728  TIP3      H2             62.2941526364       26.2631462175       23.6905056378  TIP3      5592            0.0000000000
     34127      5729  TIP3      OH2            58.5236816350       28.2607332882       24.1529614106  TIP3      5593            0.0000000000
     34128      5729  TIP3      H1             59.1972402944       28.3273366620       23.4566716680  TIP3      5593            0.0000000000
     34129      5729  TIP3      H2             58.2146039945       29.1805595030       24.1901052792  TIP3      5593            0.0000000000
     34130      5730  TIP3      OH2            64.7933570628       32.2997865104       22.3735862345  TIP3      5594            0.0000000000
     34131      5730  TIP3      H1             64.9491239688       31.3604297895       22.2000220966  TIP3      5594            0.0000000000
     34132      5730  TIP3      H2             64.0218410412       32.2874531765       22.9692437618  TIP3      5594            0.0000000000
     34133      5731  TIP3      OH2            63.6468498525       34.8829881202       25.4417591660  TIP3      5595            0.0000000000
     34134      5731  TIP3      H1             63.1323720622       35.0200202419       24.6285778443  TIP3      5595            0.0000000000
     34135      5731  TIP3      H2             62.9775858938       34.4185676966       25.9752296928  TIP3      5595            0.0000000000
     34136      5732  TIP3      OH2            62.9800219400       21.4430890580       24.5248800662  TIP3      5596            0.0000000000
     34137      5732  TIP3      H1             62.9579724703       21.6909285971       25.4708673977  TIP3      5596            0.0000000000
     34138      5732  TIP3      H2             62.4282573393       20.6318811845       24.5136121428  TIP3      5596            0.0000000000
     34139      5733  TIP3      OH2            59.1219952183       24.5655882941       23.9068964616  TIP3      5597            0.0000000000
     34140      5733  TIP3      H1             59.8876060709       25.1696461816       24.0384635180  TIP3      5597            0.0000000000
     34141      5733  TIP3      H2             59.4338433994       24.1433083342       23.0866357136  TIP3      5597            0.0000000000
     34142      5734  TIP3      OH2            61.9311407982       29.0689385467       21.2564794740  TIP3      5598            0.0000000000
     34143      5734  TIP3      H1             62.1869551265       29.4817183626       22.1002464570  TIP3      5598            0.0000000000
     34144      5734  TIP3      H2             62.7823488480       29.0310304720       20.7841042717  TIP3      5598            0.0000000000
     34145      5735  TIP3      OH2            64.0700790136       26.8367740754       22.1323758442  TIP3      5599            0.0000000000
     34146      5735  TIP3      H1             63.6988317661       26.2040024099       21.5025007437  TIP3      5599            0.0000000000
     34147      5735  TIP3      H2             64.5126443262       27.4473483790       21.5072319626  TIP3      5599            0.0000000000
     34148      5736  TIP3      OH2            64.5489003809       37.7199443073       23.1708639600  TIP3      5600            0.0000000000
     34149      5736  TIP3      H1             64.8746008207       37.3371408506       22.3456121616  TIP3      5600            0.0000000000
     34150      5736  TIP3      H2             64.2261156229       36.9286233257       23.6268476214  TIP3      5600            0.0000000000
     34151      5737  TIP3      OH2            59.6173242091       35.4980843427       22.3712512028  TIP3      5601            0.0000000000
     34152      5737  TIP3      H1             59.4863980407       35.4717770680       23.3329494020  TIP3      5601            0.0000000000
     34153      5737  TIP3      H2             60.5805838739       35.3333854013       22.3316381128  TIP3      5601            0.0000000000
     34154      5738  TIP3      OH2            15.1019475292       46.9916999493       23.1107036109  TIP3      5602            0.0000000000
     34155      5738  TIP3      H1             14.8178816037       47.1377522360       22.1921939300  TIP3      5602            0.0000000000
     34156      5738  TIP3      H2             15.9815782010       47.4172649026       23.0915383184  TIP3      5602            0.0000000000
     34157      5739  TIP3      OH2             7.2906270119       41.0700760569       22.9489770016  TIP3      5603            0.0000000000
     34158      5739  TIP3      H1              6.8955604272       40.6409620880       23.7308701181  TIP3      5603            0.0000000000
     34159      5739  TIP3      H2              6.5054798791       41.3873808824       22.4880019595  TIP3      5603            0.0000000000
     34160      5740  TIP3      OH2            14.5917149522       50.4467093403       23.8615930989  TIP3      5604            0.0000000000
     34161      5740  TIP3      H1             14.6528543873       49.9955142993       24.7312238008  TIP3      5604            0.0000000000
     34162      5740  TIP3      H2             13.6184628259       50.4541984138       23.7896089655  TIP3      5604            0.0000000000
     34163      5741  TIP3      OH2             8.2247655382       51.4790199957       22.0432922202  TIP3      5605            0.0000000000
     34164      5741  TIP3      H1              7.8994987270       51.1380921686       21.1941662905  TIP3      5605            0.0000000000
     34165      5741  TIP3      H2              7.7448005641       50.9540375805       22.7016944685  TIP3      5605            0.0000000000
     34166      5742  TIP3      OH2             7.2520153326       53.9733315454       24.7297664641  TIP3      5606            0.0000000000
     34167      5742  TIP3      H1              7.5622509455       54.8718127057       24.4655465165  TIP3      5606            0.0000000000
     34168      5742  TIP3      H2              8.0242627152       53.6767906494       25.2408171360  TIP3      5606            0.0000000000
     34169      5743  TIP3      OH2            10.2974232838       54.0227139732       22.0716098180  TIP3      5607            0.0000000000
     34170      5743  TIP3      H1              9.9298388482       53.1548083623       22.3142851584  TIP3      5607            0.0000000000
     34171      5743  TIP3      H2             11.1664276386       53.7788540046       21.6953281113  TIP3      5607            0.0000000000
     34172      5744  TIP3      OH2            14.7549303656       52.9200781457       22.2420317725  TIP3      5608            0.0000000000
     34173      5744  TIP3      H1             14.9824867563       52.1584890476       22.8086326977  TIP3      5608            0.0000000000
     34174      5744  TIP3      H2             15.5282460419       53.0363724432       21.6506305284  TIP3      5608            0.0000000000
     34175      5745  TIP3      OH2             5.4783582275       48.9193219439       21.6418293930  TIP3      5609            0.0000000000
     34176      5745  TIP3      H1              5.6745443699       48.9107663032       22.5953352933  TIP3      5609            0.0000000000
     34177      5745  TIP3      H2              6.3542716746       48.7718469637       21.2195986402  TIP3      5609            0.0000000000
     34178      5746  TIP3      OH2            10.8007295229       50.8524545330       21.4974309335  TIP3      5610            0.0000000000
     34179      5746  TIP3      H1              9.9126411158       50.9367058033       21.9045559241  TIP3      5610            0.0000000000
     34180      5746  TIP3      H2             10.9652403013       49.8835510804       21.5713457547  TIP3      5610            0.0000000000
     34181      5747  TIP3      OH2             7.4142429584       46.0310600307       22.6296424089  TIP3      5611            0.0000000000
     34182      5747  TIP3      H1              7.3539138918       46.2593797679       21.6879675450  TIP3      5611            0.0000000000
     34183      5747  TIP3      H2              7.8172835234       45.1568596252       22.6586287815  TIP3      5611            0.0000000000
     34184      5748  TIP3      OH2            17.4920739592       47.7321747097       22.2598622687  TIP3      5612            0.0000000000
     34185      5748  TIP3      H1             17.4493967418       47.3083565637       21.3848194746  TIP3      5612            0.0000000000
     34186      5748  TIP3      H2             17.8623385166       48.5981426189       22.0143499393  TIP3      5612            0.0000000000
     34187      5749  TIP3      OH2             8.5403239970       56.1791229320       24.0639834469  TIP3      5613            0.0000000000
     34188      5749  TIP3      H1              9.4504592983       55.8745992441       24.1499044383  TIP3      5613            0.0000000000
     34189      5749  TIP3      H2              8.5791461186       56.6388312295       23.1930490183  TIP3      5613            0.0000000000
     34190      5750  TIP3      OH2            18.0442588419       46.0042568961       24.8660522554  TIP3      5614            0.0000000000
     34191      5750  TIP3      H1             17.6531832068       46.2483285847       24.0103275541  TIP3      5614            0.0000000000
     34192      5750  TIP3      H2             18.3521068359       46.8460120698       25.2187045972  TIP3      5614            0.0000000000
     34193      5751  TIP3      OH2             2.9485317943       39.0530134972       24.3617210878  TIP3      5615            0.0000000000
     34194      5751  TIP3      H1              3.6970919294       38.7021167166       23.8639050982  TIP3      5615            0.0000000000
     34195      5751  TIP3      H2              3.4160295666       39.3862746270       25.1430274683  TIP3      5615            0.0000000000
     34196      5752  TIP3      OH2            29.6652985850       45.5155087635       22.5093564807  TIP3      5616            0.0000000000
     34197      5752  TIP3      H1             29.3992261604       45.7298425791       23.4155395965  TIP3      5616            0.0000000000
     34198      5752  TIP3      H2             30.3050459546       44.7767526051       22.5836680734  TIP3      5616            0.0000000000
     34199      5753  TIP3      OH2            36.6581165607       52.8472750364       23.0353218587  TIP3      5617            0.0000000000
     34200      5753  TIP3      H1             36.7225565392       53.7139617919       23.4954295985  TIP3      5617            0.0000000000
     34201      5753  TIP3      H2             37.5217824640       52.4484673934       23.2512153873  TIP3      5617            0.0000000000
     34202      5754  TIP3      OH2            33.8071757579       47.1908608133       23.1496682222  TIP3      5618            0.0000000000
     34203      5754  TIP3      H1             33.6035822044       46.9098872300       22.2403277893  TIP3      5618            0.0000000000
     34204      5754  TIP3      H2             34.7229998648       47.5267550895       23.0483618665  TIP3      5618            0.0000000000
     34205      5755  TIP3      OH2            29.7278776739       41.3649601089       23.3793623491  TIP3      5619            0.0000000000
     34206      5755  TIP3      H1             28.7748399431       41.3000142773       23.2344933970  TIP3      5619            0.0000000000
     34207      5755  TIP3      H2             30.0854596624       40.7248079597       22.7470500275  TIP3      5619            0.0000000000
     34208      5756  TIP3      OH2            25.9445781804       41.4769806356       22.8497879725  TIP3      5620            0.0000000000
     34209      5756  TIP3      H1             25.2844066298       41.4253184731       23.5627396444  TIP3      5620            0.0000000000
     34210      5756  TIP3      H2             25.3840126028       41.8287423286       22.1132054948  TIP3      5620            0.0000000000
     34211      5757  TIP3      OH2            21.5935534325       47.1253521606       22.8361384940  TIP3      5621            0.0000000000
     34212      5757  TIP3      H1             22.3903837654       47.3664931063       23.3518076858  TIP3      5621            0.0000000000
     34213      5757  TIP3      H2             21.4641815536       46.2093698706       23.1291010708  TIP3      5621            0.0000000000
     34214      5758  TIP3      OH2            37.2874125993       55.4601539986       23.9688424277  TIP3      5622            0.0000000000
     34215      5758  TIP3      H1             38.1593110820       55.8795917709       23.8753381785  TIP3      5622            0.0000000000
     34216      5758  TIP3      H2             36.6664410860       56.1196581469       23.6266637075  TIP3      5622            0.0000000000
     34217      5759  TIP3      OH2            27.2511264741       52.2992540111       22.0854652235  TIP3      5623            0.0000000000
     34218      5759  TIP3      H1             27.2863236334       51.6667522809       21.3477673853  TIP3      5623            0.0000000000
     34219      5759  TIP3      H2             27.1936266387       51.6630435063       22.8248201242  TIP3      5623            0.0000000000
     34220      5760  TIP3      OH2            25.3543034797       51.3661270794       25.7727017175  TIP3      5624            0.0000000000
     34221      5760  TIP3      H1             25.8548835303       51.0764493290       26.5686894839  TIP3      5624            0.0000000000
     34222      5760  TIP3      H2             24.9969130603       52.1875679134       26.1672074730  TIP3      5624            0.0000000000
     34223      5761  TIP3      OH2            24.1528664745       40.2338384772       25.3103907223  TIP3      5625            0.0000000000
     34224      5761  TIP3      H1             23.5044975646       40.5496296415       25.9947022390  TIP3      5625            0.0000000000
     34225      5761  TIP3      H2             24.8994093891       40.0139747810       25.8754328726  TIP3      5625            0.0000000000
     34226      5762  TIP3      OH2            21.8610898399       44.0730181248       22.6886452996  TIP3      5626            0.0000000000
     34227      5762  TIP3      H1             22.6068191672       44.5648292296       23.0897535610  TIP3      5626            0.0000000000
     34228      5762  TIP3      H2             21.9422164296       43.2405216827       23.1737902806  TIP3      5626            0.0000000000
     34229      5763  TIP3      OH2            33.5512871150       53.0925959113       22.0341633286  TIP3      5627            0.0000000000
     34230      5763  TIP3      H1             33.8532502657       52.6809571627       22.8560888069  TIP3      5627            0.0000000000
     34231      5763  TIP3      H2             34.3906031156       53.2092626365       21.5447790515  TIP3      5627            0.0000000000
     34232      5764  TIP3      OH2            24.9925516625       49.0729711547       22.1859772556  TIP3      5628            0.0000000000
     34233      5764  TIP3      H1             25.2756290475       48.3060825448       22.7319216404  TIP3      5628            0.0000000000
     34234      5764  TIP3      H2             25.8057220370       49.1191054496       21.6420513065  TIP3      5628            0.0000000000
     34235      5765  TIP3      OH2            30.8102408533       50.3509005452       21.9489225273  TIP3      5629            0.0000000000
     34236      5765  TIP3      H1             30.8615749653       50.3957259033       22.9410728954  TIP3      5629            0.0000000000
     34237      5765  TIP3      H2             30.3599942613       49.5000144642       21.8086268448  TIP3      5629            0.0000000000
     34238      5766  TIP3      OH2            36.4322248672       47.8526465602       22.5136749915  TIP3      5630            0.0000000000
     34239      5766  TIP3      H1             36.3048929818       47.4455819448       21.6499197845  TIP3      5630            0.0000000000
     34240      5766  TIP3      H2             36.3461497104       48.8142477230       22.3132659227  TIP3      5630            0.0000000000
     34241      5767  TIP3      OH2            35.5146185253       44.1830476849       22.4767218643  TIP3      5631            0.0000000000
     34242      5767  TIP3      H1             35.7974676745       43.6471269286       21.7318057519  TIP3      5631            0.0000000000
     34243      5767  TIP3      H2             35.3888021229       43.5203198212       23.1776301614  TIP3      5631            0.0000000000
     34244      5768  TIP3      OH2            22.4301320217       41.1122599804       23.2974394937  TIP3      5632            0.0000000000
     34245      5768  TIP3      H1             22.8837402244       40.4888335831       22.6970374313  TIP3      5632            0.0000000000
     34246      5768  TIP3      H2             22.8573384874       40.9030025655       24.1531328048  TIP3      5632            0.0000000000
     34247      5769  TIP3      OH2            21.9864050418       54.7204603634       22.6481062291  TIP3      5633            0.0000000000
     34248      5769  TIP3      H1             22.7143743300       54.7947125950       23.2836102923  TIP3      5633            0.0000000000
     34249      5769  TIP3      H2             22.2722380893       53.9323420458       22.1328053951  TIP3      5633            0.0000000000
     34250      5770  TIP3      OH2            48.5875170795       45.5567540598       22.7116445442  TIP3      5634            0.0000000000
     34251      5770  TIP3      H1             49.4009472194       45.4270089949       23.2116706097  TIP3      5634            0.0000000000
     34252      5770  TIP3      H2             48.4662464099       44.6358082401       22.4060267045  TIP3      5634            0.0000000000
     34253      5771  TIP3      OH2            52.3891422051       47.5098270138       23.1120033875  TIP3      5635            0.0000000000
     34254      5771  TIP3      H1             52.1614545400       47.3646049520       22.1774325892  TIP3      5635            0.0000000000
     34255      5771  TIP3      H2             53.3615718955       47.6060319284       22.9684792479  TIP3      5635            0.0000000000
     34256      5772  TIP3      OH2            44.3091479760       41.4112581264       22.8119175618  TIP3      5636            0.0000000000
     34257      5772  TIP3      H1             43.4571848828       41.0556036898       23.1473309903  TIP3      5636            0.0000000000
     34258      5772  TIP3      H2             43.9883842068       42.0003052220       22.0886694049  TIP3      5636            0.0000000000
     34259      5773  TIP3      OH2            42.9678982277       44.3048624067       23.5510855958  TIP3      5637            0.0000000000
     34260      5773  TIP3      H1             42.6945212869       43.3840238513       23.6545927580  TIP3      5637            0.0000000000
     34261      5773  TIP3      H2             43.5310038874       44.2673120742       22.7621632536  TIP3      5637            0.0000000000
     34262      5774  TIP3      OH2            52.1252708589       50.3848232477       23.6012816560  TIP3      5638            0.0000000000
     34263      5774  TIP3      H1             51.5322237581       50.3343064181       24.3843716490  TIP3      5638            0.0000000000
     34264      5774  TIP3      H2             51.8372031115       49.5708860359       23.1533296381  TIP3      5638            0.0000000000
     34265      5775  TIP3      OH2            46.4641212957       51.2577140669       21.8166330954  TIP3      5639            0.0000000000
     34266      5775  TIP3      H1             45.7297542443       51.3179873410       21.1864134254  TIP3      5639            0.0000000000
     34267      5775  TIP3      H2             45.9938938217       51.1109469699       22.6549303490  TIP3      5639            0.0000000000
     34268      5776  TIP3      OH2            45.0784589491       51.0427418226       24.5358729479  TIP3      5640            0.0000000000
     34269      5776  TIP3      H1             44.1837886013       51.1482944552       24.1959370454  TIP3      5640            0.0000000000
     34270      5776  TIP3      H2             45.2820742368       51.9465681756       24.8158372437  TIP3      5640            0.0000000000
     34271      5777  TIP3      OH2            47.8745049038       53.6473150718       21.9567080497  TIP3      5641            0.0000000000
     34272      5777  TIP3      H1             47.6311030016       52.8032996511       22.3822930254  TIP3      5641            0.0000000000
     34273      5777  TIP3      H2             48.6900366218       53.3835193256       21.4886617880  TIP3      5641            0.0000000000
     34274      5778  TIP3      OH2            52.5148549746       52.9570598310       22.0118966516  TIP3      5642            0.0000000000
     34275      5778  TIP3      H1             52.5347347201       52.0814188843       22.4519661100  TIP3      5642            0.0000000000
     34276      5778  TIP3      H2             53.2158428779       52.8391446692       21.3287701077  TIP3      5642            0.0000000000
     34277      5779  TIP3      OH2            43.6808783914       48.8898517612       21.9751025551  TIP3      5643            0.0000000000
     34278      5779  TIP3      H1             43.4529473736       47.9654709080       21.8039090557  TIP3      5643            0.0000000000
     34279      5779  TIP3      H2             44.5313647384       48.9464907993       21.4790389599  TIP3      5643            0.0000000000
     34280      5780  TIP3      OH2            49.0534882172       50.4075768272       21.6870815273  TIP3      5644            0.0000000000
     34281      5780  TIP3      H1             48.0714995172       50.4513104070       21.6942719841  TIP3      5644            0.0000000000
     34282      5780  TIP3      H2             49.2011957926       49.4386881829       21.5524318425  TIP3      5644            0.0000000000
     34283      5781  TIP3      OH2            54.8778704083       47.9283860670       22.1336852310  TIP3      5645            0.0000000000
     34284      5781  TIP3      H1             54.8417195838       47.7398746145       21.1787332099  TIP3      5645            0.0000000000
     34285      5781  TIP3      H2             55.0561794707       48.8965924698       22.1233449094  TIP3      5645            0.0000000000
     34286      5782  TIP3      OH2            46.2966361388       56.5047675646       23.9668383421  TIP3      5646            0.0000000000
     34287      5782  TIP3      H1             47.2667157048       56.3696380421       23.9858420763  TIP3      5646            0.0000000000
     34288      5782  TIP3      H2             45.9320619767       55.6164933592       23.9271900505  TIP3      5646            0.0000000000
     34289      5783  TIP3      OH2            38.9521073015       50.8269438684       23.0510751840  TIP3      5647            0.0000000000
     34290      5783  TIP3      H1             39.7376779202       51.2653967163       22.6901230043  TIP3      5647            0.0000000000
     34291      5783  TIP3      H2             38.6303684449       50.3386054213       22.2770584288  TIP3      5647            0.0000000000
     34292      5784  TIP3      OH2            56.3983899180       47.2046651266       24.4294550194  TIP3      5648            0.0000000000
     34293      5784  TIP3      H1             55.9211053889       47.3654839307       23.5941533764  TIP3      5648            0.0000000000
     34294      5784  TIP3      H2             56.3493396320       48.0851947646       24.8517832230  TIP3      5648            0.0000000000
     34295      5785  TIP3      OH2            53.9113987628       40.3778154305       21.3280849053  TIP3      5649            0.0000000000
     34296      5785  TIP3      H1             53.6176840951       40.7036949852       22.1979041828  TIP3      5649            0.0000000000
     34297      5785  TIP3      H2             53.2380272012       40.7545014418       20.7342545605  TIP3      5649            0.0000000000
     34298      5786  TIP3      OH2            56.1089292590       39.6922659615       23.8770103066  TIP3      5650            0.0000000000
     34299      5786  TIP3      H1             56.3799663050       38.9817707585       23.2554403607  TIP3      5650            0.0000000000
     34300      5786  TIP3      H2             56.9258032273       39.8296130021       24.3875716378  TIP3      5650            0.0000000000
     34301      5787  TIP3      OH2            42.0487526428       40.3848796733       23.6776508915  TIP3      5651            0.0000000000
     34302      5787  TIP3      H1             42.1835495421       39.4190064399       23.5692823552  TIP3      5651            0.0000000000
     34303      5787  TIP3      H2             42.0058181119       40.4600801164       24.6589611330  TIP3      5651            0.0000000000
     34304      5788  TIP3      OH2            63.6188717094       40.1941376628       22.6627479960  TIP3      5652            0.0000000000
     34305      5788  TIP3      H1             62.8673058736       40.0070644591       23.2485516758  TIP3      5652            0.0000000000
     34306      5788  TIP3      H2             64.0334131552       39.3053675736       22.7638008391  TIP3      5652            0.0000000000
     34307      5789  TIP3      OH2            62.5747436921       44.1244126111       23.7820358089  TIP3      5653            0.0000000000
     34308      5789  TIP3      H1             61.6432087348       44.3818394518       24.0085156470  TIP3      5653            0.0000000000
     34309      5789  TIP3      H2             62.9609584460       44.9389013747       23.3972467134  TIP3      5653            0.0000000000
     34310      5790  TIP3      OH2            58.8954191840       46.8150806149       23.5837661516  TIP3      5654            0.0000000000
     34311      5790  TIP3      H1             59.1456390371       47.6175941046       24.0870450536  TIP3      5654            0.0000000000
     34312      5790  TIP3      H2             57.9269567571       46.7985612148       23.7818660180  TIP3      5654            0.0000000000
     34313      5791  TIP3      OH2            64.6345249896       51.5192237593       22.2974736583  TIP3      5655            0.0000000000
     34314      5791  TIP3      H1             64.7273892926       51.4115520631       21.3409197282  TIP3      5655            0.0000000000
     34315      5791  TIP3      H2             64.1839593896       50.7032094555       22.5457128545  TIP3      5655            0.0000000000
     34316      5792  TIP3      OH2            59.6638657629       49.2668729509       24.7917310105  TIP3      5656            0.0000000000
     34317      5792  TIP3      H1             58.8041497402       49.6913974545       24.9657528931  TIP3      5656            0.0000000000
     34318      5792  TIP3      H2             60.2580565698       49.7328855767       25.4021331804  TIP3      5656            0.0000000000
     34319      5793  TIP3      OH2            59.8604689619       44.3703097713       23.9223661907  TIP3      5657            0.0000000000
     34320      5793  TIP3      H1             59.3889013180       45.2369033548       23.9549592474  TIP3      5657            0.0000000000
     34321      5793  TIP3      H2             59.3420950195       43.8292331683       24.5438368657  TIP3      5657            0.0000000000
     34322      5794  TIP3      OH2            61.9049619177       49.4023305041       22.2079269082  TIP3      5658            0.0000000000
     34323      5794  TIP3      H1             61.6676961157       48.8612575605       22.9724837320  TIP3      5658            0.0000000000
     34324      5794  TIP3      H2             62.6630483944       48.9381132521       21.8208208712  TIP3      5658            0.0000000000
     34325      5795  TIP3      OH2            64.3067523433       45.7103428642       22.3734736877  TIP3      5659            0.0000000000
     34326      5795  TIP3      H1             64.2060843849       46.0257775077       21.4544224049  TIP3      5659            0.0000000000
     34327      5795  TIP3      H2             64.8196255740       44.8940873224       22.2112768795  TIP3      5659            0.0000000000
     34328      5796  TIP3      OH2            59.4579030226       54.6962948584       22.4969513714  TIP3      5660            0.0000000000
     34329      5796  TIP3      H1             58.9839871424       53.9550041543       22.8996533998  TIP3      5660            0.0000000000
     34330      5796  TIP3      H2             60.3833694284       54.4030674517       22.5276642020  TIP3      5660            0.0000000000
     34331      5797  TIP3      OH2            10.8950325057       63.8571561816       23.5672926155  TIP3      5661            0.0000000000
     34332      5797  TIP3      H1             10.7521729729       63.5455036115       24.4812760820  TIP3      5661            0.0000000000
     34333      5797  TIP3      H2             11.7579742262       63.4571561741       23.3688804646  TIP3      5661            0.0000000000
     34334      5798  TIP3      OH2            10.1077270933       59.7030215801       23.9780488909  TIP3      5662            0.0000000000
     34335      5798  TIP3      H1              9.7020098431       60.1371672603       24.7529188106  TIP3      5662            0.0000000000
     34336      5798  TIP3      H2              9.3700521134       59.1623026072       23.6432958676  TIP3      5662            0.0000000000
     34337      5799  TIP3      OH2             7.4104121360       60.0051123650       22.6447668591  TIP3      5663            0.0000000000
     34338      5799  TIP3      H1              7.2599664476       60.3689637555       23.5331015331  TIP3      5663            0.0000000000
     34339      5799  TIP3      H2              6.6816357958       60.4312046242       22.1418230773  TIP3      5663            0.0000000000
     34340      5800  TIP3      OH2             5.3565363876       62.5505196887       23.7410944589  TIP3      5664            0.0000000000
     34341      5800  TIP3      H1              5.4474554005       62.2522675828       22.8119195753  TIP3      5664            0.0000000000
     34342      5800  TIP3      H2              6.2699441660       62.8382050005       23.9225755288  TIP3      5664            0.0000000000
     34343      5801  TIP3      OH2            12.7810327441       60.2945819504       23.9922160116  TIP3      5665            0.0000000000
     34344      5801  TIP3      H1             11.8176461863       60.0814712823       24.0888319878  TIP3      5665            0.0000000000
     34345      5801  TIP3      H2             12.7777597113       61.1181394039       24.5135608464  TIP3      5665            0.0000000000
     34346      5802  TIP3      OH2             2.3023779330       65.5861363280       24.2067763043  TIP3      5666            0.0000000000
     34347      5802  TIP3      H1              2.6069848096       66.1032690232       24.9981732624  TIP3      5666            0.0000000000
     34348      5802  TIP3      H2              1.9496648465       66.3019007266       23.6694995948  TIP3      5666            0.0000000000
     34349      5803  TIP3      OH2             2.0300286415       62.8438445093       22.6503917331  TIP3      5667            0.0000000000
     34350      5803  TIP3      H1              2.3236594432       63.5434776931       23.2634052726  TIP3      5667            0.0000000000
     34351      5803  TIP3      H2              1.0626154664       62.9072660444       22.7137249021  TIP3      5667            0.0000000000
     34352      5804  TIP3      OH2             5.6085943195       65.5696902292       23.4705769861  TIP3      5668            0.0000000000
     34353      5804  TIP3      H1              5.0742597894       65.2613523762       24.2214566222  TIP3      5668            0.0000000000
     34354      5804  TIP3      H2              6.2726655444       64.8648752260       23.3784797532  TIP3      5668            0.0000000000
     34355      5805  TIP3      OH2             7.8268613837       63.5468535918       23.0686130730  TIP3      5669            0.0000000000
     34356      5805  TIP3      H1              7.6844512886       63.7181275279       22.1170835957  TIP3      5669            0.0000000000
     34357      5805  TIP3      H2              8.7744628037       63.7701854121       23.1441306931  TIP3      5669            0.0000000000
     34358      5806  TIP3      OH2            18.6423805372       64.6360585729       23.7762946873  TIP3      5670            0.0000000000
     34359      5806  TIP3      H1             18.0665631475       63.9589288945       23.3672471407  TIP3      5670            0.0000000000
     34360      5806  TIP3      H2             19.0864051444       64.1260851151       24.4685648593  TIP3      5670            0.0000000000
     34361      5807  TIP3      OH2            16.6878846130       63.0033331449       22.4560839593  TIP3      5671            0.0000000000
     34362      5807  TIP3      H1             17.2692499847       63.1265286963       21.6920299326  TIP3      5671            0.0000000000
     34363      5807  TIP3      H2             16.1308779072       62.2753047629       22.1287959905  TIP3      5671            0.0000000000
     34364      5808  TIP3      OH2            15.8758855114       59.9981932353       22.4952884009  TIP3      5672            0.0000000000
     34365      5808  TIP3      H1             16.6808207123       59.6275891587       22.9480253712  TIP3      5672            0.0000000000
     34366      5808  TIP3      H2             15.2712233680       60.0669396167       23.2396947512  TIP3      5672            0.0000000000
     34367      5809  TIP3      OH2            32.8863683413       64.0791398832       24.6587836138  TIP3      5673            0.0000000000
     34368      5809  TIP3      H1             32.5724996304       64.5195604943       25.4602576202  TIP3      5673            0.0000000000
     34369      5809  TIP3      H2             33.0504851921       64.8181511109       24.0399760136  TIP3      5673            0.0000000000
     34370      5810  TIP3      OH2            33.3446777345       -0.2664762574       22.8265130168  TIP3      5674            0.0000000000
     34371      5810  TIP3      H1             33.9886481634       -0.5056771082       22.1338183388  TIP3      5674            0.0000000000
     34372      5810  TIP3      H2             33.6385004504        0.6682323653       22.9275233048  TIP3      5674            0.0000000000
     34373      5811  TIP3      OH2            25.3058153796       60.0941126260       22.9103865457  TIP3      5675            0.0000000000
     34374      5811  TIP3      H1             24.8985420638       59.3286970378       22.4860140336  TIP3      5675            0.0000000000
     34375      5811  TIP3      H2             25.0921516665       60.7955057852       22.2609722899  TIP3      5675            0.0000000000
     34376      5812  TIP3      OH2            24.5035615883       63.3637329001       23.6151117247  TIP3      5676            0.0000000000
     34377      5812  TIP3      H1             24.5051340353       62.9066940158       22.7507368197  TIP3      5676            0.0000000000
     34378      5812  TIP3      H2             25.3528736834       63.8375097418       23.5145915812  TIP3      5676            0.0000000000
     34379      5813  TIP3      OH2            21.6951596201       65.5004046393       23.9167866270  TIP3      5677            0.0000000000
     34380      5813  TIP3      H1             22.4608018458       64.9806140704       24.2303115652  TIP3      5677            0.0000000000
     34381      5813  TIP3      H2             21.1006429886       64.7908440300       23.6239447560  TIP3      5677            0.0000000000
     34382      5814  TIP3      OH2            21.2044850996       62.7561401392       22.5311901791  TIP3      5678            0.0000000000
     34383      5814  TIP3      H1             21.9318813397       62.1140879745       22.5710408622  TIP3      5678            0.0000000000
     34384      5814  TIP3      H2             20.4365308199       62.1676688613       22.6394209061  TIP3      5678            0.0000000000
     34385      5815  TIP3      OH2            27.0773399730       64.5396092900       22.8197545948  TIP3      5679            0.0000000000
     34386      5815  TIP3      H1             26.8120996265       65.4294664193       22.5249469572  TIP3      5679            0.0000000000
     34387      5815  TIP3      H2             27.2152934731       64.7765200577       23.7791828213  TIP3      5679            0.0000000000
     34388      5816  TIP3      OH2            36.3547818854       63.2293707220       23.1070772780  TIP3      5680            0.0000000000
     34389      5816  TIP3      H1             36.7101031429       63.4165880983       22.2091972351  TIP3      5680            0.0000000000
     34390      5816  TIP3      H2             36.0067126247       62.3213791001       22.9968678615  TIP3      5680            0.0000000000
     34391      5817  TIP3      OH2            35.4127118782       60.4733880846       22.7899331848  TIP3      5681            0.0000000000
     34392      5817  TIP3      H1             35.9797936703       59.8812486340       23.3289258761  TIP3      5681            0.0000000000
     34393      5817  TIP3      H2             34.5250707667       60.2131924706       23.1082963007  TIP3      5681            0.0000000000
     34394      5818  TIP3      OH2            37.2552738713       58.7618673588       23.8504129625  TIP3      5682            0.0000000000
     34395      5818  TIP3      H1             37.2894667513       58.4225198137       22.9243270513  TIP3      5682            0.0000000000
     34396      5818  TIP3      H2             38.1427260962       59.1508096128       23.9486494413  TIP3      5682            0.0000000000
     34397      5819  TIP3      OH2            48.3564155185       63.2233632905       23.4330230197  TIP3      5683            0.0000000000
     34398      5819  TIP3      H1             49.1643524599       63.3284777781       23.9416057425  TIP3      5683            0.0000000000
     34399      5819  TIP3      H2             48.4179134578       63.9687591715       22.8153162352  TIP3      5683            0.0000000000
     34400      5820  TIP3      OH2            51.7396507059       64.1429241864       23.5419816823  TIP3      5684            0.0000000000
     34401      5820  TIP3      H1             52.3771361089       63.5369150798       23.9938570332  TIP3      5684            0.0000000000
     34402      5820  TIP3      H2             52.3273457805       64.9223525030       23.4200817682  TIP3      5684            0.0000000000
     34403      5821  TIP3      OH2            53.2665819246       -0.0024629223       22.8371314316  TIP3      5685            0.0000000000
     34404      5821  TIP3      H1             52.5654681063        0.5773069174       22.4646006591  TIP3      5685            0.0000000000
     34405      5821  TIP3      H2             53.9273766461        0.0460423657       22.1153986871  TIP3      5685            0.0000000000
     34406      5822  TIP3      OH2            44.8159786502       60.4742481601       22.6014476374  TIP3      5686            0.0000000000
     34407      5822  TIP3      H1             44.1597148566       60.0685684635       23.1945445727  TIP3      5686            0.0000000000
     34408      5822  TIP3      H2             44.2253867333       61.1428863957       22.2123811543  TIP3      5686            0.0000000000
     34409      5823  TIP3      OH2            44.4445914641       65.9931995840       23.4389487336  TIP3      5687            0.0000000000
     34410      5823  TIP3      H1             44.0804009326       65.8284060965       24.3122730308  TIP3      5687            0.0000000000
     34411      5823  TIP3      H2             44.9133646468       65.1428189896       23.2591369280  TIP3      5687            0.0000000000
     34412      5824  TIP3      OH2            45.7934456339       63.7109524214       22.8607190948  TIP3      5688            0.0000000000
     34413      5824  TIP3      H1             45.7046481594       63.6839200320       21.8897772688  TIP3      5688            0.0000000000
     34414      5824  TIP3      H2             46.6607339429       63.2972139925       23.0143180993  TIP3      5688            0.0000000000
     34415      5825  TIP3      OH2            53.5073392828       59.5812801548       21.4657082099  TIP3      5689            0.0000000000
     34416      5825  TIP3      H1             53.7809423886       60.0726878180       22.2648021231  TIP3      5689            0.0000000000
     34417      5825  TIP3      H2             53.2148285685       60.3015622961       20.8695328710  TIP3      5689            0.0000000000
     34418      5826  TIP3      OH2            55.9109120714       58.8161001069       23.3272459788  TIP3      5690            0.0000000000
     34419      5826  TIP3      H1             55.9743726717       57.8985058113       23.0000249334  TIP3      5690            0.0000000000
     34420      5826  TIP3      H2             56.4333947920       59.2814335120       22.6623725799  TIP3      5690            0.0000000000
     34421      5827  TIP3      OH2            59.0298687807       65.3596020629       24.1111358336  TIP3      5691            0.0000000000
     34422      5827  TIP3      H1             59.7753843033       65.7646973423       24.5810873850  TIP3      5691            0.0000000000
     34423      5827  TIP3      H2             58.4919523447       66.1326416892       23.8727427610  TIP3      5691            0.0000000000
     34424      5828  TIP3      OH2            64.8281829615       64.5112721657       22.5672509079  TIP3      5692            0.0000000000
     34425      5828  TIP3      H1             64.7526097250       64.2269645116       21.6400038745  TIP3      5692            0.0000000000
     34426      5828  TIP3      H2             64.5792150624       65.4536728455       22.5038757774  TIP3      5692            0.0000000000
     34427      5829  TIP3      OH2            60.8865918528       59.2493234249       23.1985297004  TIP3      5693            0.0000000000
     34428      5829  TIP3      H1             60.8528554173       58.4055863269       22.7104367202  TIP3      5693            0.0000000000
     34429      5829  TIP3      H2             61.8428604545       59.2514863233       23.4441952312  TIP3      5693            0.0000000000
     34430      5830  TIP3      OH2            10.9834740771        7.8150475181       89.4562255170  TIP3      5694            0.0000000000
     34431      5830  TIP3      H1             11.6838055556        8.3889906770       89.8143189349  TIP3      5694            0.0000000000
     34432      5830  TIP3      H2             11.2149365522        7.8129527714       88.5137400334  TIP3      5694            0.0000000000
     34433      5831  TIP3      OH2            16.1946300886        0.3670123838       -0.1875028370  TIP3      5695            0.0000000000
     34434      5831  TIP3      H1             16.2260295583        0.4688051232        0.7900915196  TIP3      5695            0.0000000000
     34435      5831  TIP3      H2             16.8856530087        1.0094711789       -0.4655774827  TIP3      5695            0.0000000000
     34436      5832  TIP3      OH2            17.7572142084       14.2951953514       88.3705479228  TIP3      5696            0.0000000000
     34437      5832  TIP3      H1             18.0142419703       15.2252299165       88.2338861259  TIP3      5696            0.0000000000
     34438      5832  TIP3      H2             18.2436987333       14.0814876426       89.1757603307  TIP3      5696            0.0000000000
     34439      5833  TIP3      OH2            13.4354371768       17.5211434603       89.5787271496  TIP3      5697            0.0000000000
     34440      5833  TIP3      H1             13.9973907454       16.8217317545       89.1968171639  TIP3      5697            0.0000000000
     34441      5833  TIP3      H2             13.3806387485       17.2209702558       90.5040938061  TIP3      5697            0.0000000000
     34442      5834  TIP3      OH2            13.9344082302        9.3470608531       89.2606188939  TIP3      5698            0.0000000000
     34443      5834  TIP3      H1             14.3848063303       10.0040530947       88.6953217656  TIP3      5698            0.0000000000
     34444      5834  TIP3      H2             14.6908288250        8.8303497678       89.5762060516  TIP3      5698            0.0000000000
     34445      5835  TIP3      OH2            10.1833723000        3.9097548808       89.8462606403  TIP3      5699            0.0000000000
     34446      5835  TIP3      H1              9.7009314756        3.5098270971       90.6028873858  TIP3      5699            0.0000000000
     34447      5835  TIP3      H2              9.9928241150        3.2631128191       89.1583471995  TIP3      5699            0.0000000000
     34448      5836  TIP3      OH2             6.9618123083        4.3125872972       88.4164952295  TIP3      5700            0.0000000000
     34449      5836  TIP3      H1              7.1467239549        4.1345996957       89.3727051456  TIP3      5700            0.0000000000
     34450      5836  TIP3      H2              6.1153530490        4.7757679045       88.4970641225  TIP3      5700            0.0000000000
     34451      5837  TIP3      OH2             5.3745628951        6.9440078202       90.1416971468  TIP3      5701            0.0000000000
     34452      5837  TIP3      H1              4.6355129346        6.9282675479       89.4910627540  TIP3      5701            0.0000000000
     34453      5837  TIP3      H2              6.1287423464        6.7770479452       89.5411093809  TIP3      5701            0.0000000000
     34454      5838  TIP3      OH2            12.9006523655        4.1143309723       89.2437239436  TIP3      5702            0.0000000000
     34455      5838  TIP3      H1             11.9633976298        4.2352567074       89.5037302792  TIP3      5702            0.0000000000
     34456      5838  TIP3      H2             13.3535139461        4.3807701029       90.0510094675  TIP3      5702            0.0000000000
     34457      5839  TIP3      OH2            11.0396525855       12.2836274716        0.1814086740  TIP3      5703            0.0000000000
     34458      5839  TIP3      H1             11.0113119058       12.2028756901        1.1642743704  TIP3      5703            0.0000000000
     34459      5839  TIP3      H2             10.1089062490       12.4783810302       -0.0189144351  TIP3      5703            0.0000000000
     34460      5840  TIP3      OH2             1.9044964850        8.6086277214       90.0238785763  TIP3      5704            0.0000000000
     34461      5840  TIP3      H1              2.5194404968        8.9932974150       89.3754225738  TIP3      5704            0.0000000000
     34462      5840  TIP3      H2              1.6418822377        9.4263721054       90.4815286249  TIP3      5704            0.0000000000
     34463      5841  TIP3      OH2            14.7645353216       12.2065564270       89.2901345129  TIP3      5705            0.0000000000
     34464      5841  TIP3      H1             14.6501723787       12.1557980725       90.2532271323  TIP3      5705            0.0000000000
     34465      5841  TIP3      H2             13.8481395711       12.4275798779       89.0243433705  TIP3      5705            0.0000000000
     34466      5842  TIP3      OH2            18.3974133714       17.3178516198       89.7492383276  TIP3      5706            0.0000000000
     34467      5842  TIP3      H1             19.0021671122       18.0779329442       89.7882294503  TIP3      5706            0.0000000000
     34468      5842  TIP3      H2             17.5539379528       17.7468774820       89.9948788841  TIP3      5706            0.0000000000
     34469      5843  TIP3      OH2             8.9019278542       13.1403745743       89.0163492031  TIP3      5707            0.0000000000
     34470      5843  TIP3      H1              8.4772889052       13.4732416821       88.1968899164  TIP3      5707            0.0000000000
     34471      5843  TIP3      H2              8.1261121741       12.8862806127       89.5518909330  TIP3      5707            0.0000000000
     34472      5844  TIP3      OH2             7.0762065799       13.6670352393       -0.1549501267  TIP3      5708            0.0000000000
     34473      5844  TIP3      H1              7.5588779546       13.5886235102        0.7019148250  TIP3      5708            0.0000000000
     34474      5844  TIP3      H2              7.5474879110       14.4081071203       -0.5709234255  TIP3      5708            0.0000000000
     34475      5845  TIP3      OH2             6.6860585331        3.8635930417       -0.0147577017  TIP3      5709            0.0000000000
     34476      5845  TIP3      H1              6.4439442135        3.9693058566        0.9169722198  TIP3      5709            0.0000000000
     34477      5845  TIP3      H2              6.6089651729        2.9015230774       -0.0989918193  TIP3      5709            0.0000000000
     34478      5846  TIP3      OH2             4.2121071751       13.5824467534       89.2569358846  TIP3      5710            0.0000000000
     34479      5846  TIP3      H1              4.2587471057       13.5930201202       90.2320599192  TIP3      5710            0.0000000000
     34480      5846  TIP3      H2              4.6299387881       12.7219028814       89.0571057186  TIP3      5710            0.0000000000
     34481      5847  TIP3      OH2             3.3419465899        6.1236221954       88.6519125968  TIP3      5711            0.0000000000
     34482      5847  TIP3      H1              2.6865116125        6.8082984667       88.4416523367  TIP3      5711            0.0000000000
     34483      5847  TIP3      H2              2.8406169975        5.3026186400       88.4790586534  TIP3      5711            0.0000000000
     34484      5848  TIP3      OH2            11.0349197388       15.5184939496       88.8617723259  TIP3      5712            0.0000000000
     34485      5848  TIP3      H1             10.6042671412       14.6437867662       88.8819640334  TIP3      5712            0.0000000000
     34486      5848  TIP3      H2             11.7468773057       15.3879624507       88.2223718887  TIP3      5712            0.0000000000
     34487      5849  TIP3      OH2            15.0496420579       15.2032134505       88.3557842456  TIP3      5713            0.0000000000
     34488      5849  TIP3      H1             15.2715332105       14.3489890680       88.7674739618  TIP3      5713            0.0000000000
     34489      5849  TIP3      H2             15.9528479997       15.4135306509       88.0632282983  TIP3      5713            0.0000000000
     34490      5850  TIP3      OH2             5.9233655660       11.3712566465       88.1984934108  TIP3      5714            0.0000000000
     34491      5850  TIP3      H1              6.2090285812       10.8692602107       89.0093048954  TIP3      5714            0.0000000000
     34492      5850  TIP3      H2              6.2590441649       10.7104273264       87.5490500772  TIP3      5714            0.0000000000
     34493      5851  TIP3      OH2            11.8173038921       12.4286370807       88.5671338575  TIP3      5715            0.0000000000
     34494      5851  TIP3      H1             11.4011753801       12.6752839769       89.4195261202  TIP3      5715            0.0000000000
     34495      5851  TIP3      H2             11.5224443261       11.5098521426       88.5150618032  TIP3      5715            0.0000000000
     34496      5852  TIP3      OH2             6.6576860173        9.7878224258       90.1193937860  TIP3      5716            0.0000000000
     34497      5852  TIP3      H1              6.3096549787        9.8359909264       91.0211771833  TIP3      5716            0.0000000000
     34498      5852  TIP3      H2              6.8398347761        8.8310985961       90.0628104108  TIP3      5716            0.0000000000
     34499      5853  TIP3      OH2             7.9011182356        7.4184631891       88.9727421651  TIP3      5717            0.0000000000
     34500      5853  TIP3      H1              7.8152713765        6.9126953625       88.1446642478  TIP3      5717            0.0000000000
     34501      5853  TIP3      H2              8.8468972568        7.6509225662       88.9605044228  TIP3      5717            0.0000000000
     34502      5854  TIP3      OH2            16.9753833665        9.9568536369       88.5878826451  TIP3      5718            0.0000000000
     34503      5854  TIP3      H1             16.7348984316       10.0820528530       87.6543111975  TIP3      5718            0.0000000000
     34504      5854  TIP3      H2             16.6719105829       10.7975208339       88.9559243860  TIP3      5718            0.0000000000
     34505      5855  TIP3      OH2             7.6596559416       18.3837656776       90.4245310345  TIP3      5719            0.0000000000
     34506      5855  TIP3      H1              8.5297194619       18.3840386407       89.9869433956  TIP3      5719            0.0000000000
     34507      5855  TIP3      H2              7.3757916040       19.3053603983       90.2850999291  TIP3      5719            0.0000000000
     34508      5856  TIP3      OH2             1.7221950707       12.0569070519       89.1882729279  TIP3      5720            0.0000000000
     34509      5856  TIP3      H1              2.3017038149       12.8305429423       89.1010812491  TIP3      5720            0.0000000000
     34510      5856  TIP3      H2              0.8425862246       12.4202564519       88.8940691393  TIP3      5720            0.0000000000
     34511      5857  TIP3      OH2            18.5816650743        8.8060356298       90.6494890255  TIP3      5721            0.0000000000
     34512      5857  TIP3      H1             18.0522151993        8.7613819101       89.8238210598  TIP3      5721            0.0000000000
     34513      5857  TIP3      H2             18.4366229509        9.7240854318       90.9100875151  TIP3      5721            0.0000000000
     34514      5858  TIP3      OH2            17.0858655030        6.3053275363       89.1574761058  TIP3      5722            0.0000000000
     34515      5858  TIP3      H1             17.1218317923        6.7123101637       88.2808320080  TIP3      5722            0.0000000000
     34516      5858  TIP3      H2             16.8100534621        5.3873546691       88.9307597696  TIP3      5722            0.0000000000
     34517      5859  TIP3      OH2            16.0648054835        3.7746055867       88.6368594053  TIP3      5723            0.0000000000
     34518      5859  TIP3      H1             16.4811151354        2.9080452196       88.7599409149  TIP3      5723            0.0000000000
     34519      5859  TIP3      H2             15.1296329940        3.5480138314       88.5065550946  TIP3      5723            0.0000000000
     34520      5860  TIP3      OH2            18.0462249524        1.7973276080       89.1551580423  TIP3      5724            0.0000000000
     34521      5860  TIP3      H1             18.8674020009        1.5101061936       89.6282515095  TIP3      5724            0.0000000000
     34522      5860  TIP3      H2             18.3463818518        2.6604250749       88.8343317734  TIP3      5724            0.0000000000
     34523      5861  TIP3      OH2             0.3744279478        1.3501351790       90.6343358235  TIP3      5725            0.0000000000
     34524      5861  TIP3      H1              1.2648400340        1.6683605465       90.4288180036  TIP3      5725            0.0000000000
     34525      5861  TIP3      H2              0.3945993094        1.2564185984       91.6059887300  TIP3      5725            0.0000000000
     34526      5862  TIP3      OH2             3.7564647567        2.3053564511       89.3774805252  TIP3      5726            0.0000000000
     34527      5862  TIP3      H1              4.2441200629        1.8214495352       88.6937942807  TIP3      5726            0.0000000000
     34528      5862  TIP3      H2              3.9950981780        3.2200106762       89.1760827356  TIP3      5726            0.0000000000
     34529      5863  TIP3      OH2            10.4618672531       18.0924042495       90.0081429152  TIP3      5727            0.0000000000
     34530      5863  TIP3      H1             11.2810515074       18.4243263528       89.6005333710  TIP3      5727            0.0000000000
     34531      5863  TIP3      H2             10.4296633358       17.2020127319       89.6040904469  TIP3      5727            0.0000000000
     34532      5864  TIP3      OH2             4.1750009819       16.6310970763       88.9110566521  TIP3      5728            0.0000000000
     34533      5864  TIP3      H1              4.0571839118       16.9280987998       89.8326322650  TIP3      5728            0.0000000000
     34534      5864  TIP3      H2              3.9778156456       15.6771109809       88.9916840211  TIP3      5728            0.0000000000
     34535      5865  TIP3      OH2            29.7420788064        7.9061242744       89.2239502683  TIP3      5729            0.0000000000
     34536      5865  TIP3      H1             30.4192092965        8.5951479498       89.3562428109  TIP3      5729            0.0000000000
     34537      5865  TIP3      H2             29.9254007767        7.6239717044       88.3138554877  TIP3      5729            0.0000000000
     34538      5866  TIP3      OH2            35.1458795955        0.3872912971       -0.2538007718  TIP3      5730            0.0000000000
     34539      5866  TIP3      H1             35.0932453314        0.4572070304        0.7194282248  TIP3      5730            0.0000000000
     34540      5866  TIP3      H2             35.7077162727        1.1555460588       -0.4611581608  TIP3      5730            0.0000000000
     34541      5867  TIP3      OH2            36.7470568152       14.4778369876       88.7595668138  TIP3      5731            0.0000000000
     34542      5867  TIP3      H1             36.5296918741       15.0990712107       89.4779317288  TIP3      5731            0.0000000000
     34543      5867  TIP3      H2             37.6111451225       14.8344224223       88.5047463249  TIP3      5731            0.0000000000
     34544      5868  TIP3      OH2            32.0412892911       17.6985465738       89.6002719492  TIP3      5732            0.0000000000
     34545      5868  TIP3      H1             32.5831752224       17.0591619737       89.1040910062  TIP3      5732            0.0000000000
     34546      5868  TIP3      H2             32.2072621925       17.3442846196       90.4866189030  TIP3      5732            0.0000000000
     34547      5869  TIP3      OH2            33.2941408424        9.6121326355       89.1011766702  TIP3      5733            0.0000000000
     34548      5869  TIP3      H1             33.3513747483       10.2455735165       88.3727376398  TIP3      5733            0.0000000000
     34549      5869  TIP3      H2             34.2577478931        9.4668242675       89.2321692948  TIP3      5733            0.0000000000
     34550      5870  TIP3      OH2            28.8793013305        3.8920927671       89.8437056485  TIP3      5734            0.0000000000
     34551      5870  TIP3      H1             28.5723699103        4.0161200137       90.7585474393  TIP3      5734            0.0000000000
     34552      5870  TIP3      H2             28.1150269379        3.5043902780       89.3886792761  TIP3      5734            0.0000000000
     34553      5871  TIP3      OH2            25.8243345697        4.2404741372       88.2853268632  TIP3      5735            0.0000000000
     34554      5871  TIP3      H1             25.9847859481        4.0762007566       89.2434151156  TIP3      5735            0.0000000000
     34555      5871  TIP3      H2             25.2586431523        5.0361884484       88.2975166545  TIP3      5735            0.0000000000
     34556      5872  TIP3      OH2            24.2314108950        6.3290915005       89.6065214128  TIP3      5736            0.0000000000
     34557      5872  TIP3      H1             23.3099591765        6.4334395061       89.2719330307  TIP3      5736            0.0000000000
     34558      5872  TIP3      H2             24.7208474902        6.8305425104       88.9380615997  TIP3      5736            0.0000000000
     34559      5873  TIP3      OH2            31.6547858168        3.7785667083       89.3273810431  TIP3      5737            0.0000000000
     34560      5873  TIP3      H1             30.7011035588        3.8890095048       89.5250150628  TIP3      5737            0.0000000000
     34561      5873  TIP3      H2             32.0989782765        4.0405620897       90.1379764719  TIP3      5737            0.0000000000
     34562      5874  TIP3      OH2            29.9207308950       12.2970794000        0.0444424712  TIP3      5738            0.0000000000
     34563      5874  TIP3      H1             29.8363193821       12.2758900825        1.0225564016  TIP3      5738            0.0000000000
     34564      5874  TIP3      H2             29.0058177148       12.4198370082       -0.2495897293  TIP3      5738            0.0000000000
     34565      5875  TIP3      OH2            21.4357062768        9.5182596934       89.2074875858  TIP3      5739            0.0000000000
     34566      5875  TIP3      H1             21.9432746680        9.4129804166       90.0413358691  TIP3      5739            0.0000000000
     34567      5875  TIP3      H2             20.5354611089        9.4238743405       89.5517420152  TIP3      5739            0.0000000000
     34568      5876  TIP3      OH2            33.6436015322       12.4617236592       89.0542048200  TIP3      5740            0.0000000000
     34569      5876  TIP3      H1             33.5216638900       12.1350186998       89.9620531182  TIP3      5740            0.0000000000
     34570      5876  TIP3      H2             32.6991240302       12.6309306012       88.8284269433  TIP3      5740            0.0000000000
     34571      5877  TIP3      OH2            37.2755010115       17.2308583237       89.7668583843  TIP3      5741            0.0000000000
     34572      5877  TIP3      H1             37.9876517548       17.8506709076       89.5648052919  TIP3      5741            0.0000000000
     34573      5877  TIP3      H2             36.5700370048       17.8288333077       90.1011421798  TIP3      5741            0.0000000000
     34574      5878  TIP3      OH2            27.7931446595       12.8271413475       89.0591918526  TIP3      5742            0.0000000000
     34575      5878  TIP3      H1             27.3213773648       13.1067206114       88.2519547762  TIP3      5742            0.0000000000
     34576      5878  TIP3      H2             27.0599382710       12.8080383422       89.7060500727  TIP3      5742            0.0000000000
     34577      5879  TIP3      OH2            25.7665764385       13.3397714093       -0.1857806514  TIP3      5743            0.0000000000
     34578      5879  TIP3      H1             26.1844880315       13.3113399267        0.7116070280  TIP3      5743            0.0000000000
     34579      5879  TIP3      H2             25.4879232561       14.2637334315       -0.2381726378  TIP3      5743            0.0000000000
     34580      5880  TIP3      OH2            25.6753272011        3.7174551351       -0.1706639158  TIP3      5744            0.0000000000
     34581      5880  TIP3      H1             25.2398945609        4.1535778834        0.5835628284  TIP3      5744            0.0000000000
     34582      5880  TIP3      H2             25.0285219434        3.0180755560       -0.3588203220  TIP3      5744            0.0000000000
     34583      5881  TIP3      OH2            22.7188890441       13.7253782232       89.2330721934  TIP3      5745            0.0000000000
     34584      5881  TIP3      H1             22.7504409932       13.9482138447       90.1824687352  TIP3      5745            0.0000000000
     34585      5881  TIP3      H2             23.3890770260       13.0180003792       89.1698304588  TIP3      5745            0.0000000000
     34586      5882  TIP3      OH2            21.6960358583        6.5427130702       88.8931151863  TIP3      5746            0.0000000000
     34587      5882  TIP3      H1             21.5548318155        7.4418905015       89.2252781431  TIP3      5746            0.0000000000
     34588      5882  TIP3      H2             20.9074333222        6.0603008825       89.1887531123  TIP3      5746            0.0000000000
     34589      5883  TIP3      OH2            29.9590579304       15.3611909868       89.4117251118  TIP3      5747            0.0000000000
     34590      5883  TIP3      H1             29.2150241873       14.7412257929       89.3297148077  TIP3      5747            0.0000000000
     34591      5883  TIP3      H2             30.2876498595       15.3400462843       88.5019629634  TIP3      5747            0.0000000000
     34592      5884  TIP3      OH2            34.0017085830       15.5190149442       88.3226071324  TIP3      5748            0.0000000000
     34593      5884  TIP3      H1             34.1585528425       14.6263646583       88.6819448722  TIP3      5748            0.0000000000
     34594      5884  TIP3      H2             34.9150456951       15.8105099437       88.1736573333  TIP3      5748            0.0000000000
     34595      5885  TIP3      OH2            24.5650270214       11.6959443332       88.4853039127  TIP3      5749            0.0000000000
     34596      5885  TIP3      H1             24.8398786608       11.2051941522       89.3037518231  TIP3      5749            0.0000000000
     34597      5885  TIP3      H2             25.1844125784       11.2505821980       87.8828509723  TIP3      5749            0.0000000000
     34598      5886  TIP3      OH2            30.9775418965       12.6055970529       88.5552980120  TIP3      5750            0.0000000000
     34599      5886  TIP3      H1             30.5845863690       12.9405451910       89.3913389132  TIP3      5750            0.0000000000
     34600      5886  TIP3      H2             30.7186908453       11.6757455720       88.5944919862  TIP3      5750            0.0000000000
     34601      5887  TIP3      OH2            25.7375542799       10.1963474346       90.2100205737  TIP3      5751            0.0000000000
     34602      5887  TIP3      H1             25.6453452391       10.1088839208       91.1698924324  TIP3      5751            0.0000000000
     34603      5887  TIP3      H2             25.8583114120        9.2825214849       89.9209212920  TIP3      5751            0.0000000000
     34604      5888  TIP3      OH2            27.1225963828        7.7220901172       88.5507097822  TIP3      5752            0.0000000000
     34605      5888  TIP3      H1             27.1448905059        6.8045558196       88.2367252812  TIP3      5752            0.0000000000
     34606      5888  TIP3      H2             28.0561343735        7.8502844858       88.8391671810  TIP3      5752            0.0000000000
     34607      5889  TIP3      OH2            35.9756887830        9.7981626371       88.7095090111  TIP3      5753            0.0000000000
     34608      5889  TIP3      H1             36.4957694906        9.2877312098       88.0519548727  TIP3      5753            0.0000000000
     34609      5889  TIP3      H2             36.1062662436       10.7299487174       88.4754089470  TIP3      5753            0.0000000000
     34610      5890  TIP3      OH2            26.1164973437       18.5309410017       90.0452304461  TIP3      5754            0.0000000000
     34611      5890  TIP3      H1             27.0399732351       18.3494034285       89.7624043138  TIP3      5754            0.0000000000
     34612      5890  TIP3      H2             25.9909906865       19.4219163280       89.6811366307  TIP3      5754            0.0000000000
     34613      5891  TIP3      OH2            20.2385937181       12.6090123295       89.6228117012  TIP3      5755            0.0000000000
     34614      5891  TIP3      H1             21.0868499719       13.0461499211       89.3846785494  TIP3      5755            0.0000000000
     34615      5891  TIP3      H2             19.8233236391       12.5759430181       88.7457280228  TIP3      5755            0.0000000000
     34616      5892  TIP3      OH2            37.5907148932        8.9370599256       90.6794256996  TIP3      5756            0.0000000000
     34617      5892  TIP3      H1             36.9974806424        8.9052577526       89.8990782697  TIP3      5756            0.0000000000
     34618      5892  TIP3      H2             37.3603557039        9.8054620436       91.0444932991  TIP3      5756            0.0000000000
     34619      5893  TIP3      OH2            36.4239018229        6.3990630598       89.1485294191  TIP3      5757            0.0000000000
     34620      5893  TIP3      H1             36.1425457869        6.8592049275       88.3495097440  TIP3      5757            0.0000000000
     34621      5893  TIP3      H2             35.9590346688        5.5466505059       89.0179630700  TIP3      5757            0.0000000000
     34622      5894  TIP3      OH2            34.9857641097        3.9324716280       88.6399076777  TIP3      5758            0.0000000000
     34623      5894  TIP3      H1             35.7414444475        3.3534976773       88.8704163704  TIP3      5758            0.0000000000
     34624      5894  TIP3      H2             34.2307579995        3.3901119703       88.8963294279  TIP3      5758            0.0000000000
     34625      5895  TIP3      OH2            37.2002673829        2.4181865477       89.2199344074  TIP3      5759            0.0000000000
     34626      5895  TIP3      H1             37.8420358620        1.8833768902       89.7277154355  TIP3      5759            0.0000000000
     34627      5895  TIP3      H2             37.8147272632        2.8563190796       88.6057045288  TIP3      5759            0.0000000000
     34628      5896  TIP3      OH2            20.0807537566        1.3588085834       90.7630828546  TIP3      5760            0.0000000000
     34629      5896  TIP3      H1             20.9140267883        1.5398727902       90.2694351807  TIP3      5760            0.0000000000
     34630      5896  TIP3      H2             20.3717705850        0.6397357888       91.3508786636  TIP3      5760            0.0000000000
     34631      5897  TIP3      OH2            22.2319823187        1.8788657063       89.4641369291  TIP3      5761            0.0000000000
     34632      5897  TIP3      H1             21.9990646396        1.5655331841       88.5608152077  TIP3      5761            0.0000000000
     34633      5897  TIP3      H2             22.5049649142        2.7775953360       89.2465489007  TIP3      5761            0.0000000000
     34634      5898  TIP3      OH2            28.8245540387       18.0425909087       90.0046145911  TIP3      5762            0.0000000000
     34635      5898  TIP3      H1             29.7027029238       18.4607737617       89.9557241298  TIP3      5762            0.0000000000
     34636      5898  TIP3      H2             29.0433710214       17.2044636891       89.5673716737  TIP3      5762            0.0000000000
     34637      5899  TIP3      OH2            22.0928774587       17.4726864379       89.2014599033  TIP3      5763            0.0000000000
     34638      5899  TIP3      H1             22.5389320596       17.7428779502       90.0305793701  TIP3      5763            0.0000000000
     34639      5899  TIP3      H2             22.5360654967       16.6645621735       88.9240368535  TIP3      5763            0.0000000000
     34640      5900  TIP3      OH2            48.5193986888        7.8780702005       89.5224031973  TIP3      5764            0.0000000000
     34641      5900  TIP3      H1             49.0730388479        8.6542358593       89.7121864553  TIP3      5764            0.0000000000
     34642      5900  TIP3      H2             49.1392801900        7.2978748359       89.0381273869  TIP3      5764            0.0000000000
     34643      5901  TIP3      OH2            54.1055788871        0.4159440004       -0.4011676580  TIP3      5765            0.0000000000
     34644      5901  TIP3      H1             54.2031516368        0.2576950244        0.5586134073  TIP3      5765            0.0000000000
     34645      5901  TIP3      H2             54.6287579305        1.2303436714       -0.5080138430  TIP3      5765            0.0000000000
     34646      5902  TIP3      OH2            55.9250536634       14.3771153162       88.7577075761  TIP3      5766            0.0000000000
     34647      5902  TIP3      H1             56.0085900934       15.3435528201       88.7594381031  TIP3      5766            0.0000000000
     34648      5902  TIP3      H2             56.8292917608       14.1101258246       88.9814148521  TIP3      5766            0.0000000000
     34649      5903  TIP3      OH2            51.1561107278       17.8679705361       89.5132388487  TIP3      5767            0.0000000000
     34650      5903  TIP3      H1             51.6282477532       17.1313173053       89.0925856352  TIP3      5767            0.0000000000
     34651      5903  TIP3      H2             51.1944103355       17.5322774156       90.4323477571  TIP3      5767            0.0000000000
     34652      5904  TIP3      OH2            52.2466659478        9.6301435695       88.8804572952  TIP3      5768            0.0000000000
     34653      5904  TIP3      H1             52.9437044540        9.1579391744       88.3955873105  TIP3      5768            0.0000000000
     34654      5904  TIP3      H2             52.6843053959       10.4872536641       89.0522556350  TIP3      5768            0.0000000000
     34655      5905  TIP3      OH2            47.9094472459        3.8150215947       89.5884718051  TIP3      5769            0.0000000000
     34656      5905  TIP3      H1             47.6922805489        3.5104782397       90.4915774658  TIP3      5769            0.0000000000
     34657      5905  TIP3      H2             47.3249155073        3.2627852785       89.0528077443  TIP3      5769            0.0000000000
     34658      5906  TIP3      OH2            44.6479215529        4.6071545452       88.7840940154  TIP3      5770            0.0000000000
     34659      5906  TIP3      H1             44.9042880240        4.1148414248       89.5960129648  TIP3      5770            0.0000000000
     34660      5906  TIP3      H2             44.0936452469        5.2960144002       89.1934619237  TIP3      5770            0.0000000000
     34661      5907  TIP3      OH2            43.0203017026        6.4717420342       89.9255311891  TIP3      5771            0.0000000000
     34662      5907  TIP3      H1             42.0661070170        6.5943534855       89.7091012338  TIP3      5771            0.0000000000
     34663      5907  TIP3      H2             43.3972954304        6.7967598528       89.0887536426  TIP3      5771            0.0000000000
     34664      5908  TIP3      OH2            50.5930325546        4.1731424999       89.3826567433  TIP3      5772            0.0000000000
     34665      5908  TIP3      H1             49.6193289968        4.1114812907       89.5145930761  TIP3      5772            0.0000000000
     34666      5908  TIP3      H2             50.8975413542        4.3376656371       90.2890932019  TIP3      5772            0.0000000000
     34667      5909  TIP3      OH2            48.7821760580       12.5888448712        0.0077086732  TIP3      5773            0.0000000000
     34668      5909  TIP3      H1             48.6122371785       12.4735577027        0.9657345522  TIP3      5773            0.0000000000
     34669      5909  TIP3      H2             47.8895975487       12.5358014348       -0.3776372641  TIP3      5773            0.0000000000
     34670      5910  TIP3      OH2            40.0118232719        9.4652431624       89.2211907118  TIP3      5774            0.0000000000
     34671      5910  TIP3      H1             40.6512441022        9.2731346528       89.9486848055  TIP3      5774            0.0000000000
     34672      5910  TIP3      H2             39.1713956848        9.5561952868       89.7056697889  TIP3      5774            0.0000000000
     34673      5911  TIP3      OH2            52.5945881723       12.2734463322       89.4092115583  TIP3      5775            0.0000000000
     34674      5911  TIP3      H1             52.4666841383       12.2018289617       90.3772814102  TIP3      5775            0.0000000000
     34675      5911  TIP3      H2             51.6993391728       12.5616029067       89.1307425361  TIP3      5775            0.0000000000
     34676      5912  TIP3      OH2            55.8564264471       17.3689464995       89.3850607399  TIP3      5776            0.0000000000
     34677      5912  TIP3      H1             56.5534959832       18.0442506421       89.3740201997  TIP3      5776            0.0000000000
     34678      5912  TIP3      H2             55.1446070481       17.8004395495       89.8947001551  TIP3      5776            0.0000000000
     34679      5913  TIP3      OH2            46.6230086963       12.8527513332       89.0660961321  TIP3      5777            0.0000000000
     34680      5913  TIP3      H1             46.2769332511       13.1958982086       88.2205570755  TIP3      5777            0.0000000000
     34681      5913  TIP3      H2             45.8528413224       12.3377581673       89.3726867090  TIP3      5777            0.0000000000
     34682      5914  TIP3      OH2            44.4097542951       13.6919243320       90.4296089992  TIP3      5778            0.0000000000
     34683      5914  TIP3      H1             44.7987054374       13.3608585412       91.2721136023  TIP3      5778            0.0000000000
     34684      5914  TIP3      H2             45.1038224236       14.2803794079       90.0886509682  TIP3      5778            0.0000000000
     34685      5915  TIP3      OH2            44.3463191935        3.5000941308        0.0821078338  TIP3      5779            0.0000000000
     34686      5915  TIP3      H1             43.8986124938        4.0433837585        0.7588251241  TIP3      5779            0.0000000000
     34687      5915  TIP3      H2             43.7291036936        2.7536198454       -0.0064609283  TIP3      5779            0.0000000000
     34688      5916  TIP3      OH2            41.4390872731       13.9759979062       89.1088134736  TIP3      5780            0.0000000000
     34689      5916  TIP3      H1             41.4097204889       14.1925852134       90.0554752672  TIP3      5780            0.0000000000
     34690      5916  TIP3      H2             42.1598331004       13.3206456795       89.1056716667  TIP3      5780            0.0000000000
     34691      5917  TIP3      OH2            40.4642192819        6.4164899712       88.9552549065  TIP3      5781            0.0000000000
     34692      5917  TIP3      H1             40.2251219819        7.3386811718       88.7472251919  TIP3      5781            0.0000000000
     34693      5917  TIP3      H2             39.5970620949        6.0120674297       89.0797820759  TIP3      5781            0.0000000000
     34694      5918  TIP3      OH2            49.0519644597       15.7858985801       89.0767530242  TIP3      5782            0.0000000000
     34695      5918  TIP3      H1             48.4042137196       15.0671625914       88.9732731273  TIP3      5782            0.0000000000
     34696      5918  TIP3      H2             49.4212448881       15.8341957583       88.1870577905  TIP3      5782            0.0000000000
     34697      5919  TIP3      OH2            53.1334777731       15.8228686148       88.5158300683  TIP3      5783            0.0000000000
     34698      5919  TIP3      H1             53.4875221309       14.9918308022       88.8868332791  TIP3      5783            0.0000000000
     34699      5919  TIP3      H2             53.9596719059       16.2905412224       88.3112550078  TIP3      5783            0.0000000000
     34700      5920  TIP3      OH2            43.4856010189       11.8147718640       88.3708679729  TIP3      5784            0.0000000000
     34701      5920  TIP3      H1             43.7262759334       11.3257955606       89.1939213642  TIP3      5784            0.0000000000
     34702      5920  TIP3      H2             44.0019541130       11.2636031506       87.7374865816  TIP3      5784            0.0000000000
     34703      5921  TIP3      OH2            49.8821608670       12.6690443608       88.5597289627  TIP3      5785            0.0000000000
     34704      5921  TIP3      H1             49.4873505450       13.0039798225       89.3974504346  TIP3      5785            0.0000000000
     34705      5921  TIP3      H2             49.6869360579       11.7274499506       88.6341689212  TIP3      5785            0.0000000000
     34706      5922  TIP3      OH2            44.4354544749       10.4040658986       90.3318720570  TIP3      5786            0.0000000000
     34707      5922  TIP3      H1             44.5252531015       10.4139314784       91.3030553443  TIP3      5786            0.0000000000
     34708      5922  TIP3      H2             44.5784591271        9.4711450497       90.1032959021  TIP3      5786            0.0000000000
     34709      5923  TIP3      OH2            46.1399180551        7.9584597089       88.3356406381  TIP3      5787            0.0000000000
     34710      5923  TIP3      H1             46.0416068489        7.0320409782       88.0575867631  TIP3      5787            0.0000000000
     34711      5923  TIP3      H2             47.0778288091        7.9875303577       88.6254213864  TIP3      5787            0.0000000000
     34712      5924  TIP3      OH2            54.9278100792       10.1876563327       88.0351920398  TIP3      5788            0.0000000000
     34713      5924  TIP3      H1             54.3444646396       10.3222401733       87.2735483928  TIP3      5788            0.0000000000
     34714      5924  TIP3      H2             55.1144690363       11.1172645028       88.2503335370  TIP3      5788            0.0000000000
     34715      5925  TIP3      OH2            45.1166769188       18.6714374554       89.8050434419  TIP3      5789            0.0000000000
     34716      5925  TIP3      H1             46.0412361505       18.5030502099       89.5185843258  TIP3      5789            0.0000000000
     34717      5925  TIP3      H2             45.0080185200       19.6165602866       89.6106021905  TIP3      5789            0.0000000000
     34718      5926  TIP3      OH2            38.8848690035       12.5314103314       89.5505201828  TIP3      5790            0.0000000000
     34719      5926  TIP3      H1             39.7500800998       12.8229710683       89.2122529608  TIP3      5790            0.0000000000
     34720      5926  TIP3      H2             38.3091751370       12.7525169687       88.8038542090  TIP3      5790            0.0000000000
     34721      5927  TIP3      OH2            56.0945832283        9.0207840149       90.4254998482  TIP3      5791            0.0000000000
     34722      5927  TIP3      H1             55.4970284348        9.3759488791       89.7407069436  TIP3      5791            0.0000000000
     34723      5927  TIP3      H2             55.9997321492        9.6474788049       91.1539684211  TIP3      5791            0.0000000000
     34724      5928  TIP3      OH2            54.8328169084        6.3212598004       89.3304055295  TIP3      5792            0.0000000000
     34725      5928  TIP3      H1             55.1168114475        6.9300221439       88.6367739632  TIP3      5792            0.0000000000
     34726      5928  TIP3      H2             54.4936109239        5.5515093548       88.8324535624  TIP3      5792            0.0000000000
     34727      5929  TIP3      OH2            53.8914789981        3.9149552595       88.0868365641  TIP3      5793            0.0000000000
     34728      5929  TIP3      H1             54.4874830578        3.4415539157       88.7221404557  TIP3      5793            0.0000000000
     34729      5929  TIP3      H2             53.0153003574        3.8587817350       88.5008183205  TIP3      5793            0.0000000000
     34730      5930  TIP3      OH2            55.9273702519        2.6606472169       89.2918966909  TIP3      5794            0.0000000000
     34731      5930  TIP3      H1             56.4501395412        1.9585795264       89.7380874001  TIP3      5794            0.0000000000
     34732      5930  TIP3      H2             56.6421901430        3.0863669598       88.7790374198  TIP3      5794            0.0000000000
     34733      5931  TIP3      OH2            38.8131896766        1.1977373193       90.8663975461  TIP3      5795            0.0000000000
     34734      5931  TIP3      H1             39.6819332073        1.3178942696       90.4401503717  TIP3      5795            0.0000000000
     34735      5931  TIP3      H2             38.9610738868        0.3931172790       91.3771299292  TIP3      5795            0.0000000000
     34736      5932  TIP3      OH2            41.0323748684        1.8872391022       89.5217313772  TIP3      5796            0.0000000000
     34737      5932  TIP3      H1             40.6357863095        1.5445299558       88.6945010116  TIP3      5796            0.0000000000
     34738      5932  TIP3      H2             41.4486310536        2.6922901305       89.1714218466  TIP3      5796            0.0000000000
     34739      5933  TIP3      OH2            47.8612876375       18.3435945920       89.7709067188  TIP3      5797            0.0000000000
     34740      5933  TIP3      H1             48.6891968687       18.8055532610       89.5713657238  TIP3      5797            0.0000000000
     34741      5933  TIP3      H2             48.1215432737       17.4475589480       89.4761272654  TIP3      5797            0.0000000000
     34742      5934  TIP3      OH2            41.4994268251       17.4197487721       88.9973768665  TIP3      5798            0.0000000000
     34743      5934  TIP3      H1             41.3984723894       17.7201811781       89.9147835951  TIP3      5798            0.0000000000
     34744      5934  TIP3      H2             41.3114206862       16.4734968735       89.0685910230  TIP3      5798            0.0000000000
     34745      5935  TIP3      OH2            63.8847385379        4.5019021227       89.0191842153  TIP3      5799            0.0000000000
     34746      5935  TIP3      H1             63.6235450222        3.8005140154       89.6610559984  TIP3      5799            0.0000000000
     34747      5935  TIP3      H2             63.3246824217        5.2258095517       89.3719461156  TIP3      5799            0.0000000000
     34748      5936  TIP3      OH2            62.3433789891        6.3840385608       90.0363042167  TIP3      5800            0.0000000000
     34749      5936  TIP3      H1             61.4103493107        6.5469039715       89.7954013126  TIP3      5800            0.0000000000
     34750      5936  TIP3      H2             62.7874884867        6.9137466763       89.3477247329  TIP3      5800            0.0000000000
     34751      5937  TIP3      OH2            58.4828064255        8.9226506308       89.1439341974  TIP3      5801            0.0000000000
     34752      5937  TIP3      H1             58.9796102226        8.9296870476       89.9837006931  TIP3      5801            0.0000000000
     34753      5937  TIP3      H2             57.5702103778        9.0308770155       89.4912026590  TIP3      5801            0.0000000000
     34754      5938  TIP3      OH2            65.5972993107       13.1552816154       88.6856131452  TIP3      5802            0.0000000000
     34755      5938  TIP3      H1             65.0807452313       13.2878262145       87.8711223154  TIP3      5802            0.0000000000
     34756      5938  TIP3      H2             64.9444743187       13.3289651330       89.3973815895  TIP3      5802            0.0000000000
     34757      5939  TIP3      OH2            64.0728420893       13.9454999301       -0.3315766181  TIP3      5803            0.0000000000
     34758      5939  TIP3      H1             63.8673611637       13.5767515509        0.5573041893  TIP3      5803            0.0000000000
     34759      5939  TIP3      H2             64.7043030957       14.6224143632       -0.0679602711  TIP3      5803            0.0000000000
     34760      5940  TIP3      OH2            62.3797004597        3.4268318065       -0.1825516529  TIP3      5804            0.0000000000
     34761      5940  TIP3      H1             62.3685353026        4.1216281273        0.4945460996  TIP3      5804            0.0000000000
     34762      5940  TIP3      H2             62.5069876031        2.6316581590        0.3636221499  TIP3      5804            0.0000000000
     34763      5941  TIP3      OH2            60.7997379345       13.9809148595       89.7230815321  TIP3      5805            0.0000000000
     34764      5941  TIP3      H1             61.6011448706       14.5054346337       89.8264947829  TIP3      5805            0.0000000000
     34765      5941  TIP3      H2             61.1949252308       13.1139445343       89.4937290287  TIP3      5805            0.0000000000
     34766      5942  TIP3      OH2            59.3736655836        6.3048109948       89.1156168845  TIP3      5806            0.0000000000
     34767      5942  TIP3      H1             59.1631151968        7.2594472262       89.1164550626  TIP3      5806            0.0000000000
     34768      5942  TIP3      H2             58.5052530690        5.9134354812       88.9469941389  TIP3      5806            0.0000000000
     34769      5943  TIP3      OH2            62.3936450236       11.8376846289       88.7893471810  TIP3      5807            0.0000000000
     34770      5943  TIP3      H1             62.1937076935       11.1126988177       89.4192590666  TIP3      5807            0.0000000000
     34771      5943  TIP3      H2             62.9946943191       11.3645655226       88.1956888594  TIP3      5807            0.0000000000
     34772      5944  TIP3      OH2            62.2649529309        9.4080507830       89.9682804832  TIP3      5808            0.0000000000
     34773      5944  TIP3      H1             62.2565739108        9.3221312227       90.9457274981  TIP3      5808            0.0000000000
     34774      5944  TIP3      H2             63.1540258987        9.0677020334       89.7821638747  TIP3      5808            0.0000000000
     34775      5945  TIP3      OH2            64.2784858008        7.7094374329       88.1754185258  TIP3      5809            0.0000000000
     34776      5945  TIP3      H1             63.8710310819        7.1424031367       87.4975317237  TIP3      5809            0.0000000000
     34777      5945  TIP3      H2             65.0811802916        8.0270612459       87.7237216192  TIP3      5809            0.0000000000
     34778      5946  TIP3      OH2            64.8303913549       18.4244947182       89.7370281244  TIP3      5810            0.0000000000
     34779      5946  TIP3      H1             65.7092288743       18.8586180691       89.8859716821  TIP3      5810            0.0000000000
     34780      5946  TIP3      H2             64.3687493296       19.1441273971       89.2956276592  TIP3      5810            0.0000000000
     34781      5947  TIP3      OH2            58.1935391567       12.7431955132       89.4787545934  TIP3      5811            0.0000000000
     34782      5947  TIP3      H1             59.0298284593       13.2450051734       89.5081682356  TIP3      5811            0.0000000000
     34783      5947  TIP3      H2             58.2236967195       12.3304622340       88.6013531320  TIP3      5811            0.0000000000
     34784      5948  TIP3      OH2            57.4868304818        1.1120403339       90.7029872433  TIP3      5812            0.0000000000
     34785      5948  TIP3      H1             58.2528454745        1.3950084614       90.1512969963  TIP3      5812            0.0000000000
     34786      5948  TIP3      H2             57.9342471153        0.6072300011       91.3990616735  TIP3      5812            0.0000000000
     34787      5949  TIP3      OH2            59.8670777544        1.9967418558       89.6677593212  TIP3      5813            0.0000000000
     34788      5949  TIP3      H1             59.9137418756        1.6373543909       88.7540969867  TIP3      5813            0.0000000000
     34789      5949  TIP3      H2             60.4281215600        2.7794472461       89.5587152872  TIP3      5813            0.0000000000
     34790      5950  TIP3      OH2            59.4033248827       17.3068886670       89.0471092944  TIP3      5814            0.0000000000
     34791      5950  TIP3      H1             59.4707031553       17.3855833822       90.0252587925  TIP3      5814            0.0000000000
     34792      5950  TIP3      H2             60.1549956906       16.7298538474       88.8809057927  TIP3      5814            0.0000000000
     34793      5951  TIP3      OH2            11.4077890527       26.4237506114       89.4954578587  TIP3      5815            0.0000000000
     34794      5951  TIP3      H1             11.9850833579       27.1792420663       89.6939045460  TIP3      5815            0.0000000000
     34795      5951  TIP3      H2             12.0519360860       25.7750459504       89.1669712527  TIP3      5815            0.0000000000
     34796      5952  TIP3      OH2            16.5251941931       19.1646376423       90.6665885700  TIP3      5816            0.0000000000
     34797      5952  TIP3      H1             15.8437271324       19.3348284636       91.3200408749  TIP3      5816            0.0000000000
     34798      5952  TIP3      H2             17.1229874894       19.9163268599       90.8146484421  TIP3      5816            0.0000000000
     34799      5953  TIP3      OH2            17.9097885179       33.4250094115       88.4971021383  TIP3      5817            0.0000000000
     34800      5953  TIP3      H1             18.0578406739       34.3878426087       88.5228504495  TIP3      5817            0.0000000000
     34801      5953  TIP3      H2             18.6531918414       33.1099726565       89.0363293580  TIP3      5817            0.0000000000
     34802      5954  TIP3      OH2            13.4223668724       36.5126328508       89.6075894078  TIP3      5818            0.0000000000
     34803      5954  TIP3      H1             13.9520109101       35.7585468826       89.2948868024  TIP3      5818            0.0000000000
     34804      5954  TIP3      H2             13.3830469582       36.3125387164       90.5612262871  TIP3      5818            0.0000000000
     34805      5955  TIP3      OH2            14.2493889524       28.1805075277       89.0050306561  TIP3      5819            0.0000000000
     34806      5955  TIP3      H1             14.3523920717       28.8175266017       88.2855621008  TIP3      5819            0.0000000000
     34807      5955  TIP3      H2             15.1942193723       28.1329410884       89.2735168407  TIP3      5819            0.0000000000
     34808      5956  TIP3      OH2            10.1927468951       22.5669594761       89.4177325608  TIP3      5820            0.0000000000
     34809      5956  TIP3      H1             10.1570083046       22.1827391317       90.3249744736  TIP3      5820            0.0000000000
     34810      5956  TIP3      H2              9.2471159053       22.5819933446       89.1898995909  TIP3      5820            0.0000000000
     34811      5957  TIP3      OH2             7.2593489579       22.8950996834       88.6409152450  TIP3      5821            0.0000000000
     34812      5957  TIP3      H1              7.1188830105       22.3462510603       89.4410098787  TIP3      5821            0.0000000000
     34813      5957  TIP3      H2              6.6506316181       23.6358716187       88.8264445318  TIP3      5821            0.0000000000
     34814      5958  TIP3      OH2             5.6185961798       24.8921074031       89.8677997904  TIP3      5822            0.0000000000
     34815      5958  TIP3      H1              4.6970759963       24.8086739627       89.5301452258  TIP3      5822            0.0000000000
     34816      5958  TIP3      H2              5.9666787594       25.4836308180       89.1824836358  TIP3      5822            0.0000000000
     34817      5959  TIP3      OH2            12.9676199600       23.4166374475       89.2629348630  TIP3      5823            0.0000000000
     34818      5959  TIP3      H1             12.0189024840       23.2216085183       89.4306784658  TIP3      5823            0.0000000000
     34819      5959  TIP3      H2             13.3749525594       23.0587763987       90.0723498346  TIP3      5823            0.0000000000
     34820      5960  TIP3      OH2            11.1838197395       31.0879217241        0.0867596054  TIP3      5824            0.0000000000
     34821      5960  TIP3      H1             10.9830272588       30.9753790530        1.0313624120  TIP3      5824            0.0000000000
     34822      5960  TIP3      H2             10.3235658720       30.8800115278       -0.3194821891  TIP3      5824            0.0000000000
     34823      5961  TIP3      OH2             2.1218359464       28.2294736083       89.2588808894  TIP3      5825            0.0000000000
     34824      5961  TIP3      H1              2.2048488605       27.7089405772       90.0792671614  TIP3      5825            0.0000000000
     34825      5961  TIP3      H2              1.7291710522       29.0712709972       89.5794957176  TIP3      5825            0.0000000000
     34826      5962  TIP3      OH2            14.9113147348       31.2933307109       89.3734293242  TIP3      5826            0.0000000000
     34827      5962  TIP3      H1             14.8902508197       31.0812874653       90.3262671290  TIP3      5826            0.0000000000
     34828      5962  TIP3      H2             13.9564303819       31.3541997858       89.1762996745  TIP3      5826            0.0000000000
     34829      5963  TIP3      OH2            18.4805114673       36.2093027366       89.4394057199  TIP3      5827            0.0000000000
     34830      5963  TIP3      H1             19.0676936831       36.9604370239       89.6152708301  TIP3      5827            0.0000000000
     34831      5963  TIP3      H2             17.6525743855       36.5098692754       89.8695197445  TIP3      5827            0.0000000000
     34832      5964  TIP3      OH2             8.9530832941       31.8729170298       88.9669935211  TIP3      5828            0.0000000000
     34833      5964  TIP3      H1              8.4703225045       31.9745759699       88.1203864189  TIP3      5828            0.0000000000
     34834      5964  TIP3      H2              8.2414950521       32.1194663246       89.5940210802  TIP3      5828            0.0000000000
     34835      5965  TIP3      OH2             6.6604719544       32.6737578803       90.5545967934  TIP3      5829            0.0000000000
     34836      5965  TIP3      H1              6.4930775965       31.9562618311       91.1907722817  TIP3      5829            0.0000000000
     34837      5965  TIP3      H2              7.0738572553       33.3287271678       91.1332897023  TIP3      5829            0.0000000000
     34838      5966  TIP3      OH2             6.6265880937       21.0285374744       90.5849603953  TIP3      5830            0.0000000000
     34839      5966  TIP3      H1              5.7670157607       20.9205626613       90.1182742929  TIP3      5830            0.0000000000
     34840      5966  TIP3      H2              6.3139067727       21.1452520027       91.5161277921  TIP3      5830            0.0000000000
     34841      5967  TIP3      OH2             4.0908221901       32.4974052090       89.5466122710  TIP3      5831            0.0000000000
     34842      5967  TIP3      H1              5.0116143490       32.7791511568       89.7454322426  TIP3      5831            0.0000000000
     34843      5967  TIP3      H2              4.2815323369       31.5983601895       89.2364114973  TIP3      5831            0.0000000000
     34844      5968  TIP3      OH2             3.1339798526       24.8167268999       88.8572422496  TIP3      5832            0.0000000000
     34845      5968  TIP3      H1              2.7459155681       24.7768025625       89.7601137771  TIP3      5832            0.0000000000
     34846      5968  TIP3      H2              2.6342465597       24.1332844467       88.3681549597  TIP3      5832            0.0000000000
     34847      5969  TIP3      OH2            10.9469289873       34.0083172576       89.3017504733  TIP3      5833            0.0000000000
     34848      5969  TIP3      H1             10.3468334621       33.2428390603       89.2064962944  TIP3      5833            0.0000000000
     34849      5969  TIP3      H2             11.3615976035       34.0073346946       88.4354795031  TIP3      5833            0.0000000000
     34850      5970  TIP3      OH2            15.0364261999       34.2887563560       88.3149243283  TIP3      5834            0.0000000000
     34851      5970  TIP3      H1             15.1881848360       33.3414677730       88.5070334256  TIP3      5834            0.0000000000
     34852      5970  TIP3      H2             15.9572570575       34.5935936277       88.3272924636  TIP3      5834            0.0000000000
     34853      5971  TIP3      OH2             5.8437257545       30.2923209447       88.5318377938  TIP3      5835            0.0000000000
     34854      5971  TIP3      H1              6.1079741714       29.7196160627       89.2964401924  TIP3      5835            0.0000000000
     34855      5971  TIP3      H2              6.4741293358       29.9098325010       87.8970923122  TIP3      5835            0.0000000000
     34856      5972  TIP3      OH2            12.1164803200       31.3287629292       88.4516308168  TIP3      5836            0.0000000000
     34857      5972  TIP3      H1             11.7978030950       31.6236276068       89.3325120898  TIP3      5836            0.0000000000
     34858      5972  TIP3      H2             12.0389456939       30.3681864133       88.5516429190  TIP3      5836            0.0000000000
     34859      5973  TIP3      OH2             7.0076821221       28.6915299531       90.1680127684  TIP3      5837            0.0000000000
     34860      5973  TIP3      H1              6.8960066682       28.6683248047       91.1354226156  TIP3      5837            0.0000000000
     34861      5973  TIP3      H2              7.0257262912       27.7519705398       89.9310188873  TIP3      5837            0.0000000000
     34862      5974  TIP3      OH2             8.2509903432       26.5341953737       88.6693621794  TIP3      5838            0.0000000000
     34863      5974  TIP3      H1              8.4143553752       25.6934761952       88.2152014534  TIP3      5838            0.0000000000
     34864      5974  TIP3      H2              9.1340289356       26.9451497911       88.7309751473  TIP3      5838            0.0000000000
     34865      5975  TIP3      OH2            16.7724279086       28.9329134261       88.5177719986  TIP3      5839            0.0000000000
     34866      5975  TIP3      H1             16.9146306161       28.9348493399       87.5592344708  TIP3      5839            0.0000000000
     34867      5975  TIP3      H2             16.6919524135       29.8850009552       88.6960673093  TIP3      5839            0.0000000000
     34868      5976  TIP3      OH2             7.4467519880       37.3932250601       90.4168593963  TIP3      5840            0.0000000000
     34869      5976  TIP3      H1              8.3671172617       37.2393707869       90.1078892083  TIP3      5840            0.0000000000
     34870      5976  TIP3      H2              7.3381308509       38.3364238620       90.2038170296  TIP3      5840            0.0000000000
     34871      5977  TIP3      OH2             1.5721658032       30.8975176538       89.7843799209  TIP3      5841            0.0000000000
     34872      5977  TIP3      H1              2.2087037527       31.5631782941       89.4727946676  TIP3      5841            0.0000000000
     34873      5977  TIP3      H2              0.7343979312       31.2079549939       89.3610217013  TIP3      5841            0.0000000000
     34874      5978  TIP3      OH2            18.3340266091       27.8586700449       90.4028827291  TIP3      5842            0.0000000000
     34875      5978  TIP3      H1             17.7293018358       27.9928017516       89.6351725763  TIP3      5842            0.0000000000
     34876      5978  TIP3      H2             18.5600386491       28.7803549746       90.5950659351  TIP3      5842            0.0000000000
     34877      5979  TIP3      OH2            17.4967734092       24.8354170030       88.9485600015  TIP3      5843            0.0000000000
     34878      5979  TIP3      H1             17.4898873195       25.3665402309       88.1431321257  TIP3      5843            0.0000000000
     34879      5979  TIP3      H2             17.0868409970       24.0070283226       88.6362607978  TIP3      5843            0.0000000000
     34880      5980  TIP3      OH2            16.2303011862       22.6118503108       87.9388850328  TIP3      5844            0.0000000000
     34881      5980  TIP3      H1             16.6981137049       22.0512603166       88.5797891753  TIP3      5844            0.0000000000
     34882      5980  TIP3      H2             15.3284803794       22.6577323716       88.2986230163  TIP3      5844            0.0000000000
     34883      5981  TIP3      OH2            18.7462068364       21.8326593574       89.5673433232  TIP3      5845            0.0000000000
     34884      5981  TIP3      H1             19.0954333412       20.9334512491       89.6478584161  TIP3      5845            0.0000000000
     34885      5981  TIP3      H2             19.1365037908       22.0745397538       88.7067443816  TIP3      5845            0.0000000000
     34886      5982  TIP3      OH2             0.4711077871       19.8743642113       90.6621024923  TIP3      5846            0.0000000000
     34887      5982  TIP3      H1              1.3605083232       20.0965068612       90.3688218521  TIP3      5846            0.0000000000
     34888      5982  TIP3      H2              0.5806758375       19.8522081672       91.6347440495  TIP3      5846            0.0000000000
     34889      5983  TIP3      OH2             4.0256895393       20.8220881164       89.5165988788  TIP3      5847            0.0000000000
     34890      5983  TIP3      H1              4.2650867906       20.7200074653       88.5750665370  TIP3      5847            0.0000000000
     34891      5983  TIP3      H2              3.4393629239       21.5885909646       89.4448763726  TIP3      5847            0.0000000000
     34892      5984  TIP3      OH2            10.0279070614       36.8529410220       89.9715561780  TIP3      5848            0.0000000000
     34893      5984  TIP3      H1             10.6874613370       37.3739334162       89.4800300070  TIP3      5848            0.0000000000
     34894      5984  TIP3      H2             10.2661452478       35.9634585009       89.6477566300  TIP3      5848            0.0000000000
     34895      5985  TIP3      OH2             4.2224964029       35.7234998616       88.9412994962  TIP3      5849            0.0000000000
     34896      5985  TIP3      H1              4.5780040150       36.2534444350       89.6740073220  TIP3      5849            0.0000000000
     34897      5985  TIP3      H2              3.5899145153       35.1553305805       89.4001914298  TIP3      5849            0.0000000000
     34898      5986  TIP3      OH2            29.4611230074       26.9446337887       89.3129152279  TIP3      5850            0.0000000000
     34899      5986  TIP3      H1             30.2403441196       27.3145061620       89.7582220103  TIP3      5850            0.0000000000
     34900      5986  TIP3      H2             29.8507210468       26.5536143959       88.5158038267  TIP3      5850            0.0000000000
     34901      5987  TIP3      OH2            35.5142939908       19.0440281883       90.8095886385  TIP3      5851            0.0000000000
     34902      5987  TIP3      H1             34.7383335080       19.1385890163       91.3632249993  TIP3      5851            0.0000000000
     34903      5987  TIP3      H2             35.9511679323       19.9051636492       90.9089951274  TIP3      5851            0.0000000000
     34904      5988  TIP3      OH2            37.0565135932       33.4833255900       88.5676154770  TIP3      5852            0.0000000000
     34905      5988  TIP3      H1             36.8447660472       34.0924293793       89.2969039446  TIP3      5852            0.0000000000
     34906      5988  TIP3      H2             37.9591606899       33.2333964567       88.8181606571  TIP3      5852            0.0000000000
     34907      5989  TIP3      OH2            32.4092879455       36.7574271415       89.8869052541  TIP3      5853            0.0000000000
     34908      5989  TIP3      H1             32.6320450487       35.9232530424       89.4414024373  TIP3      5853            0.0000000000
     34909      5989  TIP3      H2             32.1306472760       36.4310581258       90.7634414492  TIP3      5853            0.0000000000
     34910      5990  TIP3      OH2            33.3307669232       28.3401127677       88.8634642243  TIP3      5854            0.0000000000
     34911      5990  TIP3      H1             33.3680480003       28.5677106417       87.9268230613  TIP3      5854            0.0000000000
     34912      5990  TIP3      H2             34.1902845561       28.7148720905       89.1308523424  TIP3      5854            0.0000000000
     34913      5991  TIP3      OH2            28.9946923614       22.9027284589       89.4738900359  TIP3      5855            0.0000000000
     34914      5991  TIP3      H1             28.9041848184       22.5956107884       90.4046444532  TIP3      5855            0.0000000000
     34915      5991  TIP3      H2             28.0597053987       23.0210668189       89.2397028574  TIP3      5855            0.0000000000
     34916      5992  TIP3      OH2            26.2462112295       23.3464102803       88.9762298114  TIP3      5856            0.0000000000
     34917      5992  TIP3      H1             26.1369902329       22.6873555816       89.7036429818  TIP3      5856            0.0000000000
     34918      5992  TIP3      H2             25.4230342406       23.8608140727       89.0260630185  TIP3      5856            0.0000000000
     34919      5993  TIP3      OH2            24.3678367048       25.5955662456       89.7317426963  TIP3      5857            0.0000000000
     34920      5993  TIP3      H1             23.9370277658       25.5855330142       88.8595117192  TIP3      5857            0.0000000000
     34921      5993  TIP3      H2             25.2268050929       25.9703396306       89.4624203697  TIP3      5857            0.0000000000
     34922      5994  TIP3      OH2            31.6797910391       23.4326012727       89.3836658495  TIP3      5858            0.0000000000
     34923      5994  TIP3      H1             30.7269878823       23.2029399194       89.3309106697  TIP3      5858            0.0000000000
     34924      5994  TIP3      H2             31.8360614346       23.3306609904       90.3426188039  TIP3      5858            0.0000000000
     34925      5995  TIP3      OH2            29.9966745273       31.2066463767       -0.0559613561  TIP3      5859            0.0000000000
     34926      5995  TIP3      H1             29.8775672925       31.2104758828        0.9205490968  TIP3      5859            0.0000000000
     34927      5995  TIP3      H2             29.0755476296       31.1072952928       -0.3556523765  TIP3      5859            0.0000000000
     34928      5996  TIP3      OH2            21.0434203371       28.2344989609       89.0192206304  TIP3      5860            0.0000000000
     34929      5996  TIP3      H1             21.5088670909       28.0658073702       89.8670638149  TIP3      5860            0.0000000000
     34930      5996  TIP3      H2             20.1344842151       27.9595831930       89.2209747898  TIP3      5860            0.0000000000
     34931      5997  TIP3      OH2            33.8390980623       31.5841291653       89.5327856501  TIP3      5861            0.0000000000
     34932      5997  TIP3      H1             33.7208280761       31.3385574793       90.4792292375  TIP3      5861            0.0000000000
     34933      5997  TIP3      H2             32.9095931820       31.5463496278       89.2289652805  TIP3      5861            0.0000000000
     34934      5998  TIP3      OH2            37.5628734264       36.2325857655       90.2619619596  TIP3      5862            0.0000000000
     34935      5998  TIP3      H1             38.0288845957       37.0614282705       90.0057521381  TIP3      5862            0.0000000000
     34936      5998  TIP3      H2             36.6622988336       36.5584482765       90.4600799500  TIP3      5862            0.0000000000
     34937      5999  TIP3      OH2            27.9204249567       31.5133063621       88.5379841104  TIP3      5863            0.0000000000
     34938      5999  TIP3      H1             27.3635220192       31.6115114482       87.7364079996  TIP3      5863            0.0000000000
     34939      5999  TIP3      H2             27.2132127017       31.4488312888       89.2143981056  TIP3      5863            0.0000000000
     34940      6000  TIP3      OH2            26.0563442430       32.2356855020       90.4670560657  TIP3      5864            0.0000000000
     34941      6000  TIP3      H1             26.1563328947       32.1573039262       91.4449730533  TIP3      5864            0.0000000000
     34942      6000  TIP3      H2             26.2937072321       33.1532208714       90.2976238688  TIP3      5864            0.0000000000
     34943      6001  TIP3      OH2            25.7131415692       21.3528595106       -0.3369373487  TIP3      5865            0.0000000000
     34944      6001  TIP3      H1             24.8586887347       21.7409600758       -0.1016425637  TIP3      5865            0.0000000000
     34945      6001  TIP3      H2             25.9034807872       20.8652520231        0.4898824396  TIP3      5865            0.0000000000
     34946      6002  TIP3      OH2            22.5706400464       32.4628561005       89.5162335509  TIP3      5866            0.0000000000
     34947      6002  TIP3      H1             22.8870540369       32.7907446123       90.3825736248  TIP3      5866            0.0000000000
     34948      6002  TIP3      H2             23.3385007245       31.9631802510       89.1772198132  TIP3      5866            0.0000000000
     34949      6003  TIP3      OH2            21.6992958636       24.9189657093       88.8151810089  TIP3      5867            0.0000000000
     34950      6003  TIP3      H1             22.2653478395       25.1677517006       89.5660370418  TIP3      5867            0.0000000000
     34951      6003  TIP3      H2             20.8379458457       24.8304002293       89.2503626049  TIP3      5867            0.0000000000
     34952      6004  TIP3      OH2            30.1624512848       34.3612570277       89.1979610463  TIP3      5868            0.0000000000
     34953      6004  TIP3      H1             29.4264150846       33.7403549072       89.3121427527  TIP3      5868            0.0000000000
     34954      6004  TIP3      H2             30.3336363263       34.2186185143       88.2483255800  TIP3      5868            0.0000000000
     34955      6005  TIP3      OH2            34.3171921481       34.2357294023       88.2083610040  TIP3      5869            0.0000000000
     34956      6005  TIP3      H1             34.1533604337       33.4560775010       88.7705415703  TIP3      5869            0.0000000000
     34957      6005  TIP3      H2             35.2855876442       34.1551918344       88.1229194582  TIP3      5869            0.0000000000
     34958      6006  TIP3      OH2            24.4789010950       30.7580494121       88.5075065710  TIP3      5870            0.0000000000
     34959      6006  TIP3      H1             24.8959040916       30.5687981208       89.3786134595  TIP3      5870            0.0000000000
     34960      6006  TIP3      H2             25.1204981545       30.2100496952       88.0120613183  TIP3      5870            0.0000000000
     34961      6007  TIP3      OH2            31.2154161523       31.3999548527       88.4814074122  TIP3      5871            0.0000000000
     34962      6007  TIP3      H1             30.7931615097       31.6733849304       89.3243300144  TIP3      5871            0.0000000000
     34963      6007  TIP3      H2             30.9211033969       30.4761823697       88.4445393585  TIP3      5871            0.0000000000
     34964      6008  TIP3      OH2            25.7808030618       29.2264872795       90.0731789092  TIP3      5872            0.0000000000
     34965      6008  TIP3      H1             25.8186965797       29.2683697774       91.0410895189  TIP3      5872            0.0000000000
     34966      6008  TIP3      H2             25.5771769414       28.3003134965       89.8985974597  TIP3      5872            0.0000000000
     34967      6009  TIP3      OH2            26.8305529819       26.6706785410       88.7004552781  TIP3      5873            0.0000000000
     34968      6009  TIP3      H1             27.1272658448       25.8304088781       88.3066430222  TIP3      5873            0.0000000000
     34969      6009  TIP3      H2             27.6643929084       27.1928952694       88.7650346244  TIP3      5873            0.0000000000
     34970      6010  TIP3      OH2            35.5598638219       29.8779719165       88.3676596621  TIP3      5874            0.0000000000
     34971      6010  TIP3      H1             35.2859367473       30.0059200688       87.4455939332  TIP3      5874            0.0000000000
     34972      6010  TIP3      H2             35.1378555223       30.6615978366       88.7885585522  TIP3      5874            0.0000000000
     34973      6011  TIP3      OH2            27.1518163662       37.2840279102       90.1117832077  TIP3      5875            0.0000000000
     34974      6011  TIP3      H1             28.0992017323       37.2395422219       89.8160185939  TIP3      5875            0.0000000000
     34975      6011  TIP3      H2             26.7699607707       37.6520725440       89.3088608117  TIP3      5875            0.0000000000
     34976      6012  TIP3      OH2            20.1351331353       31.4107149524       89.5286259982  TIP3      5876            0.0000000000
     34977      6012  TIP3      H1             21.0514855858       31.7417844363       89.3725984450  TIP3      5876            0.0000000000
     34978      6012  TIP3      H2             19.8658345105       31.2609325177       88.6155562356  TIP3      5876            0.0000000000
     34979      6013  TIP3      OH2            37.2471246730       27.9517317945       90.4841488375  TIP3      5877            0.0000000000
     34980      6013  TIP3      H1             36.6475049719       28.1141503357       89.7348269762  TIP3      5877            0.0000000000
     34981      6013  TIP3      H2             37.7747584397       28.7671123713       90.4563709410  TIP3      5877            0.0000000000
     34982      6014  TIP3      OH2            36.7094121373       24.6481705861       89.0023013725  TIP3      5878            0.0000000000
     34983      6014  TIP3      H1             36.6007087428       25.3245963183       88.3166943401  TIP3      5878            0.0000000000
     34984      6014  TIP3      H2             36.1343876358       23.9490184275       88.6256268780  TIP3      5878            0.0000000000
     34985      6015  TIP3      OH2            35.1243529642       22.6526859639       88.2024401086  TIP3      5879            0.0000000000
     34986      6015  TIP3      H1             35.5576671510       22.1683989892       88.9296023774  TIP3      5879            0.0000000000
     34987      6015  TIP3      H2             34.1950083469       22.7445667827       88.4823267342  TIP3      5879            0.0000000000
     34988      6016  TIP3      OH2            37.4270953374       21.6872350422       89.6715059400  TIP3      5880            0.0000000000
     34989      6016  TIP3      H1             37.9353984362       20.8892484608       89.9370966181  TIP3      5880            0.0000000000
     34990      6016  TIP3      H2             37.8724975453       21.9131473224       88.8325562669  TIP3      5880            0.0000000000
     34991      6017  TIP3      OH2            19.8161140815       19.5044528362       90.5222066592  TIP3      5881            0.0000000000
     34992      6017  TIP3      H1             20.7090282916       19.7399560789       90.1859689359  TIP3      5881            0.0000000000
     34993      6017  TIP3      H2             20.0740165861       19.1640946546       91.3934202565  TIP3      5881            0.0000000000
     34994      6018  TIP3      OH2            22.1541858615       20.7091334527       89.3969967345  TIP3      5882            0.0000000000
     34995      6018  TIP3      H1             22.6659801985       20.4857423597       88.6060851875  TIP3      5882            0.0000000000
     34996      6018  TIP3      H2             22.1619571082       21.6795047919       89.3707373847  TIP3      5882            0.0000000000
     34997      6019  TIP3      OH2            29.6918763945       37.1682433786       89.4735910712  TIP3      5883            0.0000000000
     34998      6019  TIP3      H1             30.5919705978       37.5225153383       89.3576602780  TIP3      5883            0.0000000000
     34999      6019  TIP3      H2             29.8729020517       36.2151158003       89.4414417952  TIP3      5883            0.0000000000
     35000      6020  TIP3      OH2            22.4722107474       36.8569379122       89.1277760809  TIP3      5884            0.0000000000
     35001      6020  TIP3      H1             22.4615256618       36.6633654097       90.0913867131  TIP3      5884            0.0000000000
     35002      6020  TIP3      H2             22.4185780651       35.9775123188       88.7419788788  TIP3      5884            0.0000000000
     35003      6021  TIP3      OH2            48.2505793949       26.9873551438       89.4410890339  TIP3      5885            0.0000000000
     35004      6021  TIP3      H1             48.5267783788       27.0048852051       90.3732699628  TIP3      5885            0.0000000000
     35005      6021  TIP3      H2             48.9102037802       26.4098715582       89.0272011046  TIP3      5885            0.0000000000
     35006      6022  TIP3      OH2            54.2089779129       19.0196439817       -0.1592962070  TIP3      5886            0.0000000000
     35007      6022  TIP3      H1             53.6035341096       19.6685256518        0.2116114355  TIP3      5886            0.0000000000
     35008      6022  TIP3      H2             55.0814398004       19.4125145216        0.0231154818  TIP3      5886            0.0000000000
     35009      6023  TIP3      OH2            55.1407002172       33.6643651904       87.9579360977  TIP3      5887            0.0000000000
     35010      6023  TIP3      H1             55.8573819562       34.2893303543       88.1586799661  TIP3      5887            0.0000000000
     35011      6023  TIP3      H2             55.4677502979       32.8346482069       88.3293426450  TIP3      5887            0.0000000000
     35012      6024  TIP3      OH2            51.0603557513       36.5322120730       89.7534871063  TIP3      5888            0.0000000000
     35013      6024  TIP3      H1             51.5737834884       35.8255041688       89.2994890622  TIP3      5888            0.0000000000
     35014      6024  TIP3      H2             51.1784028903       36.3029845192       90.6917035584  TIP3      5888            0.0000000000
     35015      6025  TIP3      OH2            52.1375902351       28.6762692572       89.4096299287  TIP3      5889            0.0000000000
     35016      6025  TIP3      H1             51.8491236052       28.9494138705       88.5289530558  TIP3      5889            0.0000000000
     35017      6025  TIP3      H2             53.1126484091       28.7732827817       89.2985193353  TIP3      5889            0.0000000000
     35018      6026  TIP3      OH2            48.0208324782       22.7941005625       89.6278626313  TIP3      5890            0.0000000000
     35019      6026  TIP3      H1             47.9338632300       22.5837921633       90.5757725909  TIP3      5890            0.0000000000
     35020      6026  TIP3      H2             47.6217144988       22.0109617497       89.2259670415  TIP3      5890            0.0000000000
     35021      6027  TIP3      OH2            44.9097922785       23.0962925259       88.8366164300  TIP3      5891            0.0000000000
     35022      6027  TIP3      H1             45.1282974089       22.6199665876       89.6650266096  TIP3      5891            0.0000000000
     35023      6027  TIP3      H2             44.3841293191       23.8569375419       89.1660369551  TIP3      5891            0.0000000000
     35024      6028  TIP3      OH2            43.4778823502       25.1565048411       89.7576510764  TIP3      5892            0.0000000000
     35025      6028  TIP3      H1             43.0222827066       25.1253061707       88.8946544840  TIP3      5892            0.0000000000
     35026      6028  TIP3      H2             44.0534948794       25.9259647168       89.5840261063  TIP3      5892            0.0000000000
     35027      6029  TIP3      OH2            50.6676786533       23.6380010504       89.4624935841  TIP3      5893            0.0000000000
     35028      6029  TIP3      H1             49.7147583683       23.4085580054       89.3934899606  TIP3      5893            0.0000000000
     35029      6029  TIP3      H2             50.8245729309       23.4515584291       90.4118829277  TIP3      5893            0.0000000000
     35030      6030  TIP3      OH2            48.8827832322       31.1204740543        0.1012727105  TIP3      5894            0.0000000000
     35031      6030  TIP3      H1             48.7173059664       31.0676849448        1.0700468395  TIP3      5894            0.0000000000
     35032      6030  TIP3      H2             47.9794480671       31.0514569838       -0.2577714765  TIP3      5894            0.0000000000
     35033      6031  TIP3      OH2            39.8156758853       28.1720827527       88.9817566970  TIP3      5895            0.0000000000
     35034      6031  TIP3      H1             40.2525944279       28.0472509636       89.8525347291  TIP3      5895            0.0000000000
     35035      6031  TIP3      H2             39.1447600759       27.4779217288       89.0347405732  TIP3      5895            0.0000000000
     35036      6032  TIP3      OH2            52.7226883507       31.9515676277       89.7984211946  TIP3      5896            0.0000000000
     35037      6032  TIP3      H1             52.7552087029       31.5106990189       90.6709982427  TIP3      5896            0.0000000000
     35038      6032  TIP3      H2             51.9672764391       31.4852615774       89.4272969451  TIP3      5896            0.0000000000
     35039      6033  TIP3      OH2            56.2743139280       36.5688215828       89.3522482605  TIP3      5897            0.0000000000
     35040      6033  TIP3      H1             56.8045426972       37.3523205046       89.5833156032  TIP3      5897            0.0000000000
     35041      6033  TIP3      H2             55.5333828554       36.6427370455       89.9712330858  TIP3      5897            0.0000000000
     35042      6034  TIP3      OH2            46.7744469370       31.6008004650       88.8627101100  TIP3      5898            0.0000000000
     35043      6034  TIP3      H1             46.2614773560       31.9628891227       88.1171108878  TIP3      5898            0.0000000000
     35044      6034  TIP3      H2             46.1335388908       31.8097442678       89.5895225147  TIP3      5898            0.0000000000
     35045      6035  TIP3      OH2            44.8690574737       32.3996847910       90.6498290917  TIP3      5899            0.0000000000
     35046      6035  TIP3      H1             45.1444857619       32.1482682932       91.5651940129  TIP3      5899            0.0000000000
     35047      6035  TIP3      H2             44.0648737945       32.8842103490       90.8653128914  TIP3      5899            0.0000000000
     35048      6036  TIP3      OH2            44.6250204040       21.3058886368       90.7487856217  TIP3      5900            0.0000000000
     35049      6036  TIP3      H1             43.7140244628       21.5526516597       90.5226434337  TIP3      5900            0.0000000000
     35050      6036  TIP3      H2             44.4792956999       20.7979760552       91.5713174067  TIP3      5900            0.0000000000
     35051      6037  TIP3      OH2            41.6523155663       32.1961810926       89.4897828231  TIP3      5901            0.0000000000
     35052      6037  TIP3      H1             41.8267288008       32.4932347764       90.4051541580  TIP3      5901            0.0000000000
     35053      6037  TIP3      H2             42.4691016838       31.7038547957       89.2648593954  TIP3      5901            0.0000000000
     35054      6038  TIP3      OH2            40.6069632277       25.0112973141       88.8128687047  TIP3      5902            0.0000000000
     35055      6038  TIP3      H1             41.1231533192       25.5502539788       89.4249042577  TIP3      5902            0.0000000000
     35056      6038  TIP3      H2             40.0254274539       24.5684301116       89.4537211934  TIP3      5902            0.0000000000
     35057      6039  TIP3      OH2            48.6125979655       34.5406943970       88.8859079694  TIP3      5903            0.0000000000
     35058      6039  TIP3      H1             48.1493384190       33.6863687622       88.9442025136  TIP3      5903            0.0000000000
     35059      6039  TIP3      H2             49.3191570429       34.3599192961       88.2517147035  TIP3      5903            0.0000000000
     35060      6040  TIP3      OH2            52.6683746862       34.5440245841       88.6217420310  TIP3      5904            0.0000000000
     35061      6040  TIP3      H1             52.7474565616       33.7732394672       89.2231014358  TIP3      5904            0.0000000000
     35062      6040  TIP3      H2             53.5696771654       34.4600995244       88.2457803103  TIP3      5904            0.0000000000
     35063      6041  TIP3      OH2            43.6756403793       30.7298172478       88.4068269864  TIP3      5905            0.0000000000
     35064      6041  TIP3      H1             43.4772381525       30.0599125786       89.1027761247  TIP3      5905            0.0000000000
     35065      6041  TIP3      H2             44.4880300274       30.3032998117       88.0982181592  TIP3      5905            0.0000000000
     35066      6042  TIP3      OH2            49.6377319572       31.3788590439       88.5923685113  TIP3      5906            0.0000000000
     35067      6042  TIP3      H1             49.5062609637       31.6517252732       89.5269568275  TIP3      5906            0.0000000000
     35068      6042  TIP3      H2             49.3083809186       30.4754908872       88.6769445114  TIP3      5906            0.0000000000
     35069      6043  TIP3      OH2            44.3309287730       28.8540516657       90.0743479174  TIP3      5907            0.0000000000
     35070      6043  TIP3      H1             44.1837004815       28.4557160848       90.9429426638  TIP3      5907            0.0000000000
     35071      6043  TIP3      H2             44.8859883317       28.1762841282       89.6545936264  TIP3      5907            0.0000000000
     35072      6044  TIP3      OH2            45.6255756881       26.7362667011       88.8702086316  TIP3      5908            0.0000000000
     35073      6044  TIP3      H1             45.6857425023       26.1106625273       88.1239995120  TIP3      5908            0.0000000000
     35074      6044  TIP3      H2             46.5826245453       26.9314803238       89.0403044261  TIP3      5908            0.0000000000
     35075      6045  TIP3      OH2            54.5097402485       29.2233624436       88.3800007108  TIP3      5909            0.0000000000
     35076      6045  TIP3      H1             54.7750368723       28.6238611247       87.6617611003  TIP3      5909            0.0000000000
     35077      6045  TIP3      H2             54.7551142559       30.0961391024       88.0387882870  TIP3      5909            0.0000000000
     35078      6046  TIP3      OH2            44.9506036679       37.1719805092       90.1172283812  TIP3      5910            0.0000000000
     35079      6046  TIP3      H1             45.8905304791       36.9277265388       90.0039701298  TIP3      5910            0.0000000000
     35080      6046  TIP3      H2             44.9768128792       38.1287984574       89.9693598568  TIP3      5910            0.0000000000
     35081      6047  TIP3      OH2            39.0497209766       31.4383042312       89.5490909413  TIP3      5911            0.0000000000
     35082      6047  TIP3      H1             39.9995363906       31.6747099228       89.4401578526  TIP3      5911            0.0000000000
     35083      6047  TIP3      H2             38.7911792480       31.2553837417       88.6366581636  TIP3      5911            0.0000000000
     35084      6048  TIP3      OH2            55.9979577571       28.3921572834       90.6210076681  TIP3      5912            0.0000000000
     35085      6048  TIP3      H1             55.4401244921       28.4781606450       89.8233229744  TIP3      5912            0.0000000000
     35086      6048  TIP3      H2             56.4863481756       29.2272133694       90.6209873857  TIP3      5912            0.0000000000
     35087      6049  TIP3      OH2            55.0241200745       25.3488204655       89.2350840672  TIP3      5913            0.0000000000
     35088      6049  TIP3      H1             55.1555726624       25.7083031623       88.3528053909  TIP3      5913            0.0000000000
     35089      6049  TIP3      H2             54.6478597278       24.4668984672       88.9953656683  TIP3      5913            0.0000000000
     35090      6050  TIP3      OH2            54.0019522228       23.0599837346       88.4209682014  TIP3      5914            0.0000000000
     35091      6050  TIP3      H1             54.4940688257       22.2558306601       88.6512368349  TIP3      5914            0.0000000000
     35092      6050  TIP3      H2             53.1051960056       22.8927692521       88.7448161419  TIP3      5914            0.0000000000
     35093      6051  TIP3      OH2            56.4142553735       21.9169315502       89.5707228389  TIP3      5915            0.0000000000
     35094      6051  TIP3      H1             56.9703472136       21.1168510846       89.6092047035  TIP3      5915            0.0000000000
     35095      6051  TIP3      H2             56.7072346200       22.2608580093       88.6998566512  TIP3      5915            0.0000000000
     35096      6052  TIP3      OH2            38.8612911710       19.6498220884       -0.1504525025  TIP3      5916            0.0000000000
     35097      6052  TIP3      H1             39.7380209196       19.9145019473       -0.5024973187  TIP3      5916            0.0000000000
     35098      6052  TIP3      H2             39.0962176413       19.4287132060        0.7737661868  TIP3      5916            0.0000000000
     35099      6053  TIP3      OH2            41.2015868762       20.7189260219       89.6199194808  TIP3      5917            0.0000000000
     35100      6053  TIP3      H1             41.6984953045       20.3555583205       88.8682767002  TIP3      5917            0.0000000000
     35101      6053  TIP3      H2             41.1267844160       21.6508860146       89.3720224311  TIP3      5917            0.0000000000
     35102      6054  TIP3      OH2            47.5778053909       36.8090052358       90.1018374680  TIP3      5918            0.0000000000
     35103      6054  TIP3      H1             48.0912544906       37.4859173628       89.6409245036  TIP3      5918            0.0000000000
     35104      6054  TIP3      H2             47.9270664478       36.0005729028       89.6481321926  TIP3      5918            0.0000000000
     35105      6055  TIP3      OH2            41.2335027939       36.1863131906       89.1326017525  TIP3      5919            0.0000000000
     35106      6055  TIP3      H1             41.1543712359       36.3786625968       90.0965807131  TIP3      5919            0.0000000000
     35107      6055  TIP3      H2             42.0472056472       35.6825201961       89.1426878127  TIP3      5919            0.0000000000
     35108      6056  TIP3      OH2            63.7244267236       23.2559063361       88.9193481890  TIP3      5920            0.0000000000
     35109      6056  TIP3      H1             63.6527767046       22.5028514682       89.5499850534  TIP3      5920            0.0000000000
     35110      6056  TIP3      H2             63.0967595051       23.9006488884       89.3140456372  TIP3      5920            0.0000000000
     35111      6057  TIP3      OH2            62.3657165005       25.2775068714       89.9426661090  TIP3      5921            0.0000000000
     35112      6057  TIP3      H1             61.6069180306       25.1352258576       89.3395818832  TIP3      5921            0.0000000000
     35113      6057  TIP3      H2             62.6844671518       26.1302516732       89.5961937446  TIP3      5921            0.0000000000
     35114      6058  TIP3      OH2            58.6603321240       28.4254017480       89.2313610794  TIP3      5922            0.0000000000
     35115      6058  TIP3      H1             59.0594476369       28.1541196368       90.0802866421  TIP3      5922            0.0000000000
     35116      6058  TIP3      H2             57.7454226534       28.1221760011       89.3362721516  TIP3      5922            0.0000000000
     35117      6059  TIP3      OH2            65.4204401325       31.6766268980       88.7713033874  TIP3      5923            0.0000000000
     35118      6059  TIP3      H1             65.0707043240       31.8830842126       87.8960490342  TIP3      5923            0.0000000000
     35119      6059  TIP3      H2             64.7188829716       32.0086517962       89.3491208620  TIP3      5923            0.0000000000
     35120      6060  TIP3      OH2            63.4403158216       33.5356593266       90.5521097814  TIP3      5924            0.0000000000
     35121      6060  TIP3      H1             63.4142625751       32.8944020588       91.2911374089  TIP3      5924            0.0000000000
     35122      6060  TIP3      H2             64.0306467574       34.2103828621       90.9148428768  TIP3      5924            0.0000000000
     35123      6061  TIP3      OH2            62.5645660408       21.5486729297       -0.4107365224  TIP3      5925            0.0000000000
     35124      6061  TIP3      H1             61.8880014875       22.2358039696       -0.4051814807  TIP3      5925            0.0000000000
     35125      6061  TIP3      H2             62.6935610734       21.4231524469        0.5539719778  TIP3      5925            0.0000000000
     35126      6062  TIP3      OH2            60.7528177071       32.6004381618       89.7956815175  TIP3      5926            0.0000000000
     35127      6062  TIP3      H1             61.5046522621       33.2136849539       89.8451603352  TIP3      5926            0.0000000000
     35128      6062  TIP3      H2             61.2020111831       31.8460368626       89.3616242539  TIP3      5926            0.0000000000
     35129      6063  TIP3      OH2            59.7097539626       24.8534976970       88.8697027128  TIP3      5927            0.0000000000
     35130      6063  TIP3      H1             59.8039305482       25.5295931752       89.5546553577  TIP3      5927            0.0000000000
     35131      6063  TIP3      H2             58.8891410313       24.4114849883       89.1201840789  TIP3      5927            0.0000000000
     35132      6064  TIP3      OH2            62.1862897666       30.7150337257       88.4662883522  TIP3      5928            0.0000000000
     35133      6064  TIP3      H1             62.1845587515       30.0761988266       89.2167869385  TIP3      5928            0.0000000000
     35134      6064  TIP3      H2             62.8369255415       30.2464392143       87.9007736155  TIP3      5928            0.0000000000
     35135      6065  TIP3      OH2            62.5854305363       28.9645915605       90.3738607238  TIP3      5929            0.0000000000
     35136      6065  TIP3      H1             62.5645039042       28.7046660300       91.3162133859  TIP3      5929            0.0000000000
     35137      6065  TIP3      H2             63.3486586978       28.4549305018       90.0705439810  TIP3      5929            0.0000000000
     35138      6066  TIP3      OH2            64.4094469671       26.8997403307       88.4707943403  TIP3      5930            0.0000000000
     35139      6066  TIP3      H1             64.3562566861       26.0178052566       88.0620208172  TIP3      5930            0.0000000000
     35140      6066  TIP3      H2             65.3685052654       27.0631686854       88.5271609342  TIP3      5930            0.0000000000
     35141      6067  TIP3      OH2            64.7842443944       37.1834903126       89.8675385105  TIP3      5931            0.0000000000
     35142      6067  TIP3      H1             65.6112993341       37.6526683466       90.1263974625  TIP3      5931            0.0000000000
     35143      6067  TIP3      H2             64.4082470928       37.8479738730       89.2775817576  TIP3      5931            0.0000000000
     35144      6068  TIP3      OH2            57.8490201152       31.6269067655       89.4205461095  TIP3      5932            0.0000000000
     35145      6068  TIP3      H1             58.6469502164       32.1617529712       89.5816480719  TIP3      5932            0.0000000000
     35146      6068  TIP3      H2             58.0006098560       31.3807583233       88.4895479801  TIP3      5932            0.0000000000
     35147      6069  TIP3      OH2            57.3963387432       19.5607167091       90.5789432805  TIP3      5933            0.0000000000
     35148      6069  TIP3      H1             58.3142171763       19.7627346392       90.2877079936  TIP3      5933            0.0000000000
     35149      6069  TIP3      H2             57.4653518175       19.7245346072       91.5463980724  TIP3      5933            0.0000000000
     35150      6070  TIP3      OH2            59.8308230287       20.5729910369       89.3083557531  TIP3      5934            0.0000000000
     35151      6070  TIP3      H1             60.5082741013       19.9435784698       89.0138469302  TIP3      5934            0.0000000000
     35152      6070  TIP3      H2             60.1687466655       21.3857825882       88.8949008266  TIP3      5934            0.0000000000
     35153      6071  TIP3      OH2            59.5302429300       36.5832549549       89.0814916951  TIP3      5935            0.0000000000
     35154      6071  TIP3      H1             59.6663201360       36.6799217970       90.0523741719  TIP3      5935            0.0000000000
     35155      6071  TIP3      H2             60.1666048432       35.8874721857       88.8675751199  TIP3      5935            0.0000000000
     35156      6072  TIP3      OH2            10.7572696865       46.0028674915       89.3810613742  TIP3      5936            0.0000000000
     35157      6072  TIP3      H1             11.4249657202       46.5217119620       89.8668143406  TIP3      5936            0.0000000000
     35158      6072  TIP3      H2             11.2086382656       45.8538546618       88.5279332540  TIP3      5936            0.0000000000
     35159      6073  TIP3      OH2            16.6695639843       37.6354600483       -0.2547509338  TIP3      5937            0.0000000000
     35160      6073  TIP3      H1             15.9694790442       37.8956551164        0.3531111044  TIP3      5937            0.0000000000
     35161      6073  TIP3      H2             17.2146168413       38.4364069266       -0.2622920163  TIP3      5937            0.0000000000
     35162      6074  TIP3      OH2            17.9667795969       52.2318918415       88.5372453372  TIP3      5938            0.0000000000
     35163      6074  TIP3      H1             18.0368539373       53.2000740150       88.6841469690  TIP3      5938            0.0000000000
     35164      6074  TIP3      H2             18.8261473938       51.9157539042       88.8373250161  TIP3      5938            0.0000000000
     35165      6075  TIP3      OH2            13.2254803090       55.5127174909       89.6832822949  TIP3      5939            0.0000000000
     35166      6075  TIP3      H1             13.4541212257       54.6672905308       89.2707801604  TIP3      5939            0.0000000000
     35167      6075  TIP3      H2             13.5210790583       55.3700337341       90.6018814460  TIP3      5939            0.0000000000
     35168      6076  TIP3      OH2            14.3753842377       47.2036895414       89.0871661941  TIP3      5940            0.0000000000
     35169      6076  TIP3      H1             14.2063764429       47.6053243794       88.2231011535  TIP3      5940            0.0000000000
     35170      6076  TIP3      H2             15.3422984443       47.3497097628       89.1323363236  TIP3      5940            0.0000000000
     35171      6077  TIP3      OH2            10.2663595446       41.6898117842       89.4807763994  TIP3      5941            0.0000000000
     35172      6077  TIP3      H1             10.1424424631       41.3706012558       90.3989165124  TIP3      5941            0.0000000000
     35173      6077  TIP3      H2              9.3413651160       41.7868870245       89.2006778432  TIP3      5941            0.0000000000
     35174      6078  TIP3      OH2             7.4433889456       42.3471815773       89.0305467509  TIP3      5942            0.0000000000
     35175      6078  TIP3      H1              7.3822072900       41.5637991694       89.6239120773  TIP3      5942            0.0000000000
     35176      6078  TIP3      H2              6.7256970379       42.9186387417       89.3798536647  TIP3      5942            0.0000000000
     35177      6079  TIP3      OH2             5.4535174087       44.0738701684       89.7383147192  TIP3      5943            0.0000000000
     35178      6079  TIP3      H1              4.5352871456       44.0227979370       89.3895316365  TIP3      5943            0.0000000000
     35179      6079  TIP3      H2              5.8607937531       44.6137972299       89.0333525598  TIP3      5943            0.0000000000
     35180      6080  TIP3      OH2            12.9519355437       42.0238410658       89.1193922574  TIP3      5944            0.0000000000
     35181      6080  TIP3      H1             11.9694709425       41.9719236151       89.1448327851  TIP3      5944            0.0000000000
     35182      6080  TIP3      H2             13.1460981945       41.8392013780       90.0553900816  TIP3      5944            0.0000000000
     35183      6081  TIP3      OH2            11.1865682031       50.0017922664        0.0579221246  TIP3      5945            0.0000000000
     35184      6081  TIP3      H1             11.0796948815       50.0363782266        1.0395447162  TIP3      5945            0.0000000000
     35185      6081  TIP3      H2             10.2759348586       49.8354103397       -0.2359753193  TIP3      5945            0.0000000000
     35186      6082  TIP3      OH2             1.8316550699       46.6080791717       89.4019763425  TIP3      5946            0.0000000000
     35187      6082  TIP3      H1              2.5062063930       47.0229991213       88.8227650826  TIP3      5946            0.0000000000
     35188      6082  TIP3      H2              1.8618085547       47.2283529145       90.1454470504  TIP3      5946            0.0000000000
     35189      6083  TIP3      OH2            15.0708628941       50.5437092413       89.6722530636  TIP3      5947            0.0000000000
     35190      6083  TIP3      H1             15.1118511938       50.4035737600       90.6399699723  TIP3      5947            0.0000000000
     35191      6083  TIP3      H2             14.1295310784       50.3796916012       89.4730938728  TIP3      5947            0.0000000000
     35192      6084  TIP3      OH2            17.8708249946       54.8639697603       89.2184623111  TIP3      5948            0.0000000000
     35193      6084  TIP3      H1             18.7071864168       55.3191796519       89.4099285663  TIP3      5948            0.0000000000
     35194      6084  TIP3      H2             17.2637984461       55.3479814638       89.8167216670  TIP3      5948            0.0000000000
     35195      6085  TIP3      OH2             9.0264182061       50.8735240194       88.9571848137  TIP3      5949            0.0000000000
     35196      6085  TIP3      H1              8.5186648679       51.0867466958       88.1426960339  TIP3      5949            0.0000000000
     35197      6085  TIP3      H2              8.3184739168       50.9588059013       89.6371604817  TIP3      5949            0.0000000000
     35198      6086  TIP3      OH2             7.1976980015       51.7345271765       -0.2719499874  TIP3      5950            0.0000000000
     35199      6086  TIP3      H1              7.5059387701       51.3210154391        0.5662906054  TIP3      5950            0.0000000000
     35200      6086  TIP3      H2              7.1665930882       52.6562282802        0.0226793998  TIP3      5950            0.0000000000
     35201      6087  TIP3      OH2             6.7714532683       40.1233787314       90.4773521602  TIP3      5951            0.0000000000
     35202      6087  TIP3      H1              5.9496938396       40.1215267794       89.9415339456  TIP3      5951            0.0000000000
     35203      6087  TIP3      H2              6.3990895160       40.1940253943       91.3814358083  TIP3      5951            0.0000000000
     35204      6088  TIP3      OH2             4.5342122698       51.4637576960       89.3968713697  TIP3      5952            0.0000000000
     35205      6088  TIP3      H1              5.4853240451       51.6018053296       89.5570605507  TIP3      5952            0.0000000000
     35206      6088  TIP3      H2              4.5304673295       50.5473277257       89.0796601985  TIP3      5952            0.0000000000
     35207      6089  TIP3      OH2             2.8351000066       44.0538901630       88.7260449988  TIP3      5953            0.0000000000
     35208      6089  TIP3      H1              2.4361923383       44.9226346158       88.9153646663  TIP3      5953            0.0000000000
     35209      6089  TIP3      H2              2.4539710257       43.4927531932       89.4264063772  TIP3      5953            0.0000000000
     35210      6090  TIP3      OH2            10.9088885467       53.1879855002       89.1741947194  TIP3      5954            0.0000000000
     35211      6090  TIP3      H1             10.2283384136       52.5651268493       89.4840620304  TIP3      5954            0.0000000000
     35212      6090  TIP3      H2             11.2999490453       52.6456240817       88.4792579874  TIP3      5954            0.0000000000
     35213      6091  TIP3      OH2            15.3038620443       53.0392826667       88.2917453176  TIP3      5955            0.0000000000
     35214      6091  TIP3      H1             15.4424323402       52.2879234963       88.9023790489  TIP3      5955            0.0000000000
     35215      6091  TIP3      H2             16.2481376719       53.2302394182       88.1516107059  TIP3      5955            0.0000000000
     35216      6092  TIP3      OH2             5.8238705340       49.3216310160       88.1040293354  TIP3      5956            0.0000000000
     35217      6092  TIP3      H1              6.1140325513       48.8984145388       88.9530635140  TIP3      5956            0.0000000000
     35218      6092  TIP3      H2              6.2582308603       48.6909312228       87.4843206615  TIP3      5956            0.0000000000
     35219      6093  TIP3      OH2            12.2738260372       50.3416710679       88.6508849017  TIP3      5957            0.0000000000
     35220      6093  TIP3      H1             11.9262770290       50.5896161612       89.5391797422  TIP3      5957            0.0000000000
     35221      6093  TIP3      H2             12.0834894391       49.3946402346       88.6841674436  TIP3      5957            0.0000000000
     35222      6094  TIP3      OH2             6.8884766919       48.2035334311       90.2117842161  TIP3      5958            0.0000000000
     35223      6094  TIP3      H1              6.6723431410       48.2587574400       91.1549333447  TIP3      5958            0.0000000000
     35224      6094  TIP3      H2              7.0720647398       47.2630881113       90.0998543205  TIP3      5958            0.0000000000
     35225      6095  TIP3      OH2             8.1751197360       45.6113565894       88.5602719814  TIP3      5959            0.0000000000
     35226      6095  TIP3      H1              8.1964894047       44.6976188114       88.2376420871  TIP3      5959            0.0000000000
     35227      6095  TIP3      H2              9.1181831883       45.8704872026       88.6516181103  TIP3      5959            0.0000000000
     35228      6096  TIP3      OH2            16.4989617431       48.6952426713       88.2309965765  TIP3      5960            0.0000000000
     35229      6096  TIP3      H1             16.3019776365       48.9209252475       87.3084816074  TIP3      5960            0.0000000000
     35230      6096  TIP3      H2             16.2889015270       49.5329898565       88.7037064485  TIP3      5960            0.0000000000
     35231      6097  TIP3      OH2             7.9406634642       56.3005862354       90.3998684889  TIP3      5961            0.0000000000
     35232      6097  TIP3      H1              8.8718278361       56.1306240127       90.1363911710  TIP3      5961            0.0000000000
     35233      6097  TIP3      H2              7.6755030780       56.9235920573       89.7099131688  TIP3      5961            0.0000000000
     35234      6098  TIP3      OH2             1.6380408714       50.5060720493       89.2758205599  TIP3      5962            0.0000000000
     35235      6098  TIP3      H1              2.3472464323       51.1394667436       89.0882174244  TIP3      5962            0.0000000000
     35236      6098  TIP3      H2              0.8514785108       50.8861960000       88.8393207467  TIP3      5962            0.0000000000
     35237      6099  TIP3      OH2            18.2195784388       46.7992238218       90.3442775458  TIP3      5963            0.0000000000
     35238      6099  TIP3      H1             17.7766543708       46.8728784731       89.4810059369  TIP3      5963            0.0000000000
     35239      6099  TIP3      H2             18.6046215781       47.6853144630       90.4538191080  TIP3      5963            0.0000000000
     35240      6100  TIP3      OH2            17.3421338850       43.9702388312       88.9781482397  TIP3      5964            0.0000000000
     35241      6100  TIP3      H1             17.3026642355       44.4855816827       88.1582614504  TIP3      5964            0.0000000000
     35242      6100  TIP3      H2             16.9910388283       43.1155919221       88.6503683509  TIP3      5964            0.0000000000
     35243      6101  TIP3      OH2            16.2141729908       41.5937568542       88.0665628833  TIP3      5965            0.0000000000
     35244      6101  TIP3      H1             16.6733721506       41.0230317385       88.7014259164  TIP3      5965            0.0000000000
     35245      6101  TIP3      H2             15.2765544524       41.5297119940       88.3243454844  TIP3      5965            0.0000000000
     35246      6102  TIP3      OH2            18.7170655235       40.4154440682       89.5444127555  TIP3      5966            0.0000000000
     35247      6102  TIP3      H1             19.4327950119       39.7942551944       89.7931967440  TIP3      5966            0.0000000000
     35248      6102  TIP3      H2             19.0693754671       40.7333007954       88.6851022405  TIP3      5966            0.0000000000
     35249      6103  TIP3      OH2             0.5218810336       38.8004554880       90.6628931656  TIP3      5967            0.0000000000
     35250      6103  TIP3      H1              1.4007174263       39.0666250604       90.3583276764  TIP3      5967            0.0000000000
     35251      6103  TIP3      H2              0.6501609919       38.7358073846       91.6257082103  TIP3      5967            0.0000000000
     35252      6104  TIP3      OH2             3.8996071808       39.8989866250       89.1899317460  TIP3      5968            0.0000000000
     35253      6104  TIP3      H1              3.9266904645       39.3553810445       88.3903137234  TIP3      5968            0.0000000000
     35254      6104  TIP3      H2              3.3654387057       40.6458255004       88.8692946888  TIP3      5968            0.0000000000
     35255      6105  TIP3      OH2            10.5203944588       55.8411101064       89.9321756933  TIP3      5969            0.0000000000
     35256      6105  TIP3      H1             11.4482994585       56.0701963891       89.7139192219  TIP3      5969            0.0000000000
     35257      6105  TIP3      H2             10.5017251542       54.9445854007       89.5371564992  TIP3      5969            0.0000000000
     35258      6106  TIP3      OH2             4.3589242905       54.9405500229       88.8583450677  TIP3      5970            0.0000000000
     35259      6106  TIP3      H1              4.3165592113       55.0196418328       89.8303764964  TIP3      5970            0.0000000000
     35260      6106  TIP3      H2              3.5158573300       54.5223902964       88.6530459130  TIP3      5970            0.0000000000
     35261      6107  TIP3      OH2            29.3112194543       45.8062091762       89.4982651828  TIP3      5971            0.0000000000
     35262      6107  TIP3      H1             30.0619489441       46.2407680913       89.9400994201  TIP3      5971            0.0000000000
     35263      6107  TIP3      H2             29.7437933562       45.3194449705       88.7760537223  TIP3      5971            0.0000000000
     35264      6108  TIP3      OH2            35.1470917617       37.4349564320       90.6052240788  TIP3      5972            0.0000000000
     35265      6108  TIP3      H1             34.2344298749       37.1322083416       90.4599778140  TIP3      5972            0.0000000000
     35266      6108  TIP3      H2             35.3352377899       37.7943061066       89.7068669973  TIP3      5972            0.0000000000
     35267      6109  TIP3      OH2            36.8507203702       52.3522025708       88.5678838497  TIP3      5973            0.0000000000
     35268      6109  TIP3      H1             36.9695734464       53.3229864614       88.5803635940  TIP3      5973            0.0000000000
     35269      6109  TIP3      H2             37.7526836882       52.0647032127       88.7553147309  TIP3      5973            0.0000000000
     35270      6110  TIP3      OH2            32.2179221741       55.4997263151       89.6418776012  TIP3      5974            0.0000000000
     35271      6110  TIP3      H1             32.5978707615       54.7381290626       89.1743343892  TIP3      5974            0.0000000000
     35272      6110  TIP3      H2             32.4348285181       55.2508673452       90.5631825316  TIP3      5974            0.0000000000
     35273      6111  TIP3      OH2            33.2897941820       47.2096325090       88.9622857391  TIP3      5975            0.0000000000
     35274      6111  TIP3      H1             33.5696924995       46.5367397626       88.3242567740  TIP3      5975            0.0000000000
     35275      6111  TIP3      H2             34.1457199314       47.6514410163       89.1279972424  TIP3      5975            0.0000000000
     35276      6112  TIP3      OH2            29.2095052636       41.5662353160       89.4432439562  TIP3      5976            0.0000000000
     35277      6112  TIP3      H1             29.2010879323       41.3845606497       90.4108690356  TIP3      5976            0.0000000000
     35278      6112  TIP3      H2             28.4707903119       41.0034698105       89.1756668749  TIP3      5976            0.0000000000
     35279      6113  TIP3      OH2            25.7790528701       41.8615454474       88.8742326205  TIP3      5977            0.0000000000
     35280      6113  TIP3      H1             25.9275840741       41.1954072522       89.5862177712  TIP3      5977            0.0000000000
     35281      6113  TIP3      H2             25.5049142915       42.6324148834       89.4068500244  TIP3      5977            0.0000000000
     35282      6114  TIP3      OH2            24.5431208012       44.1333884944       89.8394694084  TIP3      5978            0.0000000000
     35283      6114  TIP3      H1             24.1678805788       43.9013350221       88.9664347413  TIP3      5978            0.0000000000
     35284      6114  TIP3      H2             25.1760708744       44.8283901303       89.5715177745  TIP3      5978            0.0000000000
     35285      6115  TIP3      OH2            31.6036061551       42.7077480985       89.9472410922  TIP3      5979            0.0000000000
     35286      6115  TIP3      H1             30.7928011540       42.3837731758       89.4913411110  TIP3      5979            0.0000000000
     35287      6115  TIP3      H2             32.2538249506       42.0717165061       89.6370266421  TIP3      5979            0.0000000000
     35288      6116  TIP3      OH2            29.8670414271       50.1160516385        0.0021103242  TIP3      5980            0.0000000000
     35289      6116  TIP3      H1             29.7365988340       50.1378720074        0.9794366680  TIP3      5980            0.0000000000
     35290      6116  TIP3      H2             28.9541831134       50.1745497768       -0.3423775038  TIP3      5980            0.0000000000
     35291      6117  TIP3      OH2            20.8357635294       47.0151155518       89.1098544521  TIP3      5981            0.0000000000
     35292      6117  TIP3      H1             21.2753060216       46.9763435584       89.9820661465  TIP3      5981            0.0000000000
     35293      6117  TIP3      H2             19.9455636611       46.6984629933       89.3222157839  TIP3      5981            0.0000000000
     35294      6118  TIP3      OH2            33.8276429961       50.1394879515       89.3897083016  TIP3      5982            0.0000000000
     35295      6118  TIP3      H1             33.6461760005       49.9127794237       90.3251549608  TIP3      5982            0.0000000000
     35296      6118  TIP3      H2             32.8966005600       50.2335570146       89.0731843402  TIP3      5982            0.0000000000
     35297      6119  TIP3      OH2            37.2002704562       55.1007082008       89.4506221559  TIP3      5983            0.0000000000
     35298      6119  TIP3      H1             37.8316030970       55.8297707452       89.6175972621  TIP3      5983            0.0000000000
     35299      6119  TIP3      H2             36.4150506596       55.4249477398       89.9332172622  TIP3      5983            0.0000000000
     35300      6120  TIP3      OH2            27.8749008495       50.4373110704       88.8947679624  TIP3      5984            0.0000000000
     35301      6120  TIP3      H1             27.4741620890       50.8324168018       88.1035120746  TIP3      5984            0.0000000000
     35302      6120  TIP3      H2             27.1592131379       50.6486270035       89.5344006830  TIP3      5984            0.0000000000
     35303      6121  TIP3      OH2            25.9620945631       51.3814532047       -0.4882499414  TIP3      5985            0.0000000000
     35304      6121  TIP3      H1             26.3018365009       51.3090898616        0.4324388799  TIP3      5985            0.0000000000
     35305      6121  TIP3      H2             25.3019766858       52.0869384518       -0.4016357809  TIP3      5985            0.0000000000
     35306      6122  TIP3      OH2            26.0127630791       39.9015430294       -0.4114014986  TIP3      5986            0.0000000000
     35307      6122  TIP3      H1             25.6765529112       40.0425842387        0.4968097778  TIP3      5986            0.0000000000
     35308      6122  TIP3      H2             26.0106839347       38.9314471114       -0.4021886003  TIP3      5986            0.0000000000
     35309      6123  TIP3      OH2            22.7232315126       51.3370850390       89.4006163520  TIP3      5987            0.0000000000
     35310      6123  TIP3      H1             22.9879581580       51.5605169526       90.3129302610  TIP3      5987            0.0000000000
     35311      6123  TIP3      H2             23.4974681326       50.8170618861       89.1158517396  TIP3      5987            0.0000000000
     35312      6124  TIP3      OH2            21.8591891612       43.4613653292       88.7560943302  TIP3      5988            0.0000000000
     35313      6124  TIP3      H1             22.2909188379       43.9435975397       89.4651550441  TIP3      5988            0.0000000000
     35314      6124  TIP3      H2             20.9519677842       43.3816257383       89.0852679853  TIP3      5988            0.0000000000
     35315      6125  TIP3      OH2            30.2104086310       53.3768983624       89.0373015582  TIP3      5989            0.0000000000
     35316      6125  TIP3      H1             29.7068275424       52.5678614647       89.2173285420  TIP3      5989            0.0000000000
     35317      6125  TIP3      H2             30.6668676315       53.1269789655       88.2233478853  TIP3      5989            0.0000000000
     35318      6126  TIP3      OH2            34.1285151951       53.1315261067       88.4845427856  TIP3      5990            0.0000000000
     35319      6126  TIP3      H1             34.2207333479       52.2014018046       88.7641284636  TIP3      5990            0.0000000000
     35320      6126  TIP3      H2             35.0728162843       53.3611169093       88.4844134340  TIP3      5990            0.0000000000
     35321      6127  TIP3      OH2            24.7707588646       49.6275674618       88.2842157070  TIP3      5991            0.0000000000
     35322      6127  TIP3      H1             24.9433446979       49.2256946680       89.1702510322  TIP3      5991            0.0000000000
     35323      6127  TIP3      H2             25.1616835464       48.9167811612       87.7433084824  TIP3      5991            0.0000000000
     35324      6128  TIP3      OH2            31.1782156271       50.2352453153       88.6916723157  TIP3      5992            0.0000000000
     35325      6128  TIP3      H1             30.7903818958       50.4798604177       89.5656722882  TIP3      5992            0.0000000000
     35326      6128  TIP3      H2             30.7878181232       49.3492548778       88.6199278403  TIP3      5992            0.0000000000
     35327      6129  TIP3      OH2            25.4477081577       48.0394236555       90.2286151709  TIP3      5993            0.0000000000
     35328      6129  TIP3      H1             25.3118784135       48.0320679493       91.1994174118  TIP3      5993            0.0000000000
     35329      6129  TIP3      H2             25.8226398204       47.1554164626       90.0847274597  TIP3      5993            0.0000000000
     35330      6130  TIP3      OH2            26.7008501927       45.5594568219       88.7891114883  TIP3      5994            0.0000000000
     35331      6130  TIP3      H1             26.8352525767       44.7196689109       88.3154104847  TIP3      5994            0.0000000000
     35332      6130  TIP3      H2             27.6308055096       45.8681288277       88.9165696320  TIP3      5994            0.0000000000
     35333      6131  TIP3      OH2            35.8788986539       48.1718293337       88.6163436079  TIP3      5995            0.0000000000
     35334      6131  TIP3      H1             35.8127256183       48.1647049169       87.6494109045  TIP3      5995            0.0000000000
     35335      6131  TIP3      H2             35.5118485027       49.0497467690       88.8379192356  TIP3      5995            0.0000000000
     35336      6132  TIP3      OH2            26.2588310764       56.1836158978       89.4989326648  TIP3      5996            0.0000000000
     35337      6132  TIP3      H1             27.1325276016       56.0923927182       89.9087534961  TIP3      5996            0.0000000000
     35338      6132  TIP3      H2             26.5226370370       56.4220404612       88.5954644498  TIP3      5996            0.0000000000
     35339      6133  TIP3      OH2            20.2522107881       50.2116086144       89.4861729067  TIP3      5997            0.0000000000
     35340      6133  TIP3      H1             21.1683907045       50.5347566269       89.3745427772  TIP3      5997            0.0000000000
     35341      6133  TIP3      H2             20.0155428441       50.0600790309       88.5625098837  TIP3      5997            0.0000000000
     35342      6134  TIP3      OH2            37.8005671221       47.0253029140       90.6989702601  TIP3      5998            0.0000000000
     35343      6134  TIP3      H1             37.1826126900       46.9727420189       89.9409290716  TIP3      5998            0.0000000000
     35344      6134  TIP3      H2             37.9955863412       47.9785135098       90.6932031855  TIP3      5998            0.0000000000
     35345      6135  TIP3      OH2            35.8687032149       44.1921564308       89.0398306198  TIP3      5999            0.0000000000
     35346      6135  TIP3      H1             35.8363420775       44.6174009280       88.1679736405  TIP3      5999            0.0000000000
     35347      6135  TIP3      H2             35.8571737905       43.2535657813       88.7666754394  TIP3      5999            0.0000000000
     35348      6136  TIP3      OH2            35.2820760655       41.6820691251       88.0195592662  TIP3      6000            0.0000000000
     35349      6136  TIP3      H1             35.4701879757       40.7717927307       88.2946887016  TIP3      6000            0.0000000000
     35350      6136  TIP3      H2             34.3340135085       41.7268791830       88.1821235019  TIP3      6000            0.0000000000
     35351      6137  TIP3      OH2            37.2178409235       40.5936762238       89.8105604063  TIP3      6001            0.0000000000
     35352      6137  TIP3      H1             37.7682419217       39.7807412585       89.8765562965  TIP3      6001            0.0000000000
     35353      6137  TIP3      H2             37.4869192148       40.9083775547       88.9339240411  TIP3      6001            0.0000000000
     35354      6138  TIP3      OH2            20.2219032104       38.3453003444       -0.1765177860  TIP3      6002            0.0000000000
     35355      6138  TIP3      H1             21.0751500870       38.6664700749       -0.5325864133  TIP3      6002            0.0000000000
     35356      6138  TIP3      H2             20.3989853738       38.3343931974        0.7810985354  TIP3      6002            0.0000000000
     35357      6139  TIP3      OH2            21.9187998532       40.1010886727       89.2825780409  TIP3      6003            0.0000000000
     35358      6139  TIP3      H1             22.6272880864       39.7930015510       88.6903849853  TIP3      6003            0.0000000000
     35359      6139  TIP3      H2             21.9527053412       41.0560760520       89.1293180960  TIP3      6003            0.0000000000
     35360      6140  TIP3      OH2            29.0009798861       55.7962819803       90.0808728199  TIP3      6004            0.0000000000
     35361      6140  TIP3      H1             29.7710620023       56.2690886567       89.7240583935  TIP3      6004            0.0000000000
     35362      6140  TIP3      H2             29.1724456212       54.9310494558       89.6494757252  TIP3      6004            0.0000000000
     35363      6141  TIP3      OH2            21.7131888708       55.2534137672       88.8534188407  TIP3      6005            0.0000000000
     35364      6141  TIP3      H1             21.9429971258       55.2442858754       89.8129188538  TIP3      6005            0.0000000000
     35365      6141  TIP3      H2             22.1805909304       54.4759743669       88.5347670929  TIP3      6005            0.0000000000
     35366      6142  TIP3      OH2            48.4591731334       45.9377924800       89.3785352190  TIP3      6006            0.0000000000
     35367      6142  TIP3      H1             49.1479398709       46.4267370267       89.8566290295  TIP3      6006            0.0000000000
     35368      6142  TIP3      H2             48.9272562745       45.7129929333       88.5555348464  TIP3      6006            0.0000000000
     35369      6143  TIP3      OH2            54.2612208016       37.7377726977       91.0942459438  TIP3      6007            0.0000000000
     35370      6143  TIP3      H1             53.3933399147       37.3394084682       90.9095474682  TIP3      6007            0.0000000000
     35371      6143  TIP3      H2             54.2960017779       38.4977510263       90.4888982241  TIP3      6007            0.0000000000
     35372      6144  TIP3      OH2            55.5987316250       52.1545544253       88.9139072379  TIP3      6008            0.0000000000
     35373      6144  TIP3      H1             55.3868243178       52.6791344055       89.7018843871  TIP3      6008            0.0000000000
     35374      6144  TIP3      H2             56.5598402609       52.2640774783       88.9015287848  TIP3      6008            0.0000000000
     35375      6145  TIP3      OH2            51.2543934117       55.4838393631       89.7789143134  TIP3      6009            0.0000000000
     35376      6145  TIP3      H1             51.4096199655       54.7295459675       89.1918642566  TIP3      6009            0.0000000000
     35377      6145  TIP3      H2             51.3231622278       55.0551233776       90.6522028209  TIP3      6009            0.0000000000
     35378      6146  TIP3      OH2            52.1064353825       47.1985882811       89.1285471003  TIP3      6010            0.0000000000
     35379      6146  TIP3      H1             52.1026265095       47.8132130304       88.3835332561  TIP3      6010            0.0000000000
     35380      6146  TIP3      H2             53.0751575823       47.1526391779       89.2401102046  TIP3      6010            0.0000000000
     35381      6147  TIP3      OH2            47.8917227506       41.6243632440       89.6511486605  TIP3      6011            0.0000000000
     35382      6147  TIP3      H1             47.7670870805       41.2684761471       90.5595470583  TIP3      6011            0.0000000000
     35383      6147  TIP3      H2             47.0055996127       41.4682545242       89.2876717299  TIP3      6011            0.0000000000
     35384      6148  TIP3      OH2            45.0356629836       41.8852891877       88.7322130425  TIP3      6012            0.0000000000
     35385      6148  TIP3      H1             45.0157798341       41.4270469464       89.6025874521  TIP3      6012            0.0000000000
     35386      6148  TIP3      H2             44.3262340765       42.5435983188       88.8368616773  TIP3      6012            0.0000000000
     35387      6149  TIP3      OH2            42.9257300607       43.9652307124       89.9398321271  TIP3      6013            0.0000000000
     35388      6149  TIP3      H1             42.0672272256       43.9375305819       89.4435835089  TIP3      6013            0.0000000000
     35389      6149  TIP3      H2             43.3991126637       44.6005410351       89.3913479673  TIP3      6013            0.0000000000
     35390      6150  TIP3      OH2            50.6365656423       42.2384704862       89.4784289796  TIP3      6014            0.0000000000
     35391      6150  TIP3      H1             49.6774009632       42.0690158003       89.6078592808  TIP3      6014            0.0000000000
     35392      6150  TIP3      H2             50.9775222348       42.1519447784       90.3779632035  TIP3      6014            0.0000000000
     35393      6151  TIP3      OH2            48.8626993665       50.0954153566        0.0391851034  TIP3      6015            0.0000000000
     35394      6151  TIP3      H1             48.7066369115       49.8978604646        0.9865167290  TIP3      6015            0.0000000000
     35395      6151  TIP3      H2             47.9511968769       50.0937298672       -0.3111776691  TIP3      6015            0.0000000000
     35396      6152  TIP3      OH2            39.9348572089       46.9487010467       88.9764758784  TIP3      6016            0.0000000000
     35397      6152  TIP3      H1             40.4523827801       46.7561249400       89.7887847196  TIP3      6016            0.0000000000
     35398      6152  TIP3      H2             39.0503417226       47.0732225972       89.3645428616  TIP3      6016            0.0000000000
     35399      6153  TIP3      OH2            52.6466292378       50.1821661484       89.4844757092  TIP3      6017            0.0000000000
     35400      6153  TIP3      H1             52.4661060939       49.9560367153       90.4256531307  TIP3      6017            0.0000000000
     35401      6153  TIP3      H2             51.7324318162       50.3090095401       89.1724364229  TIP3      6017            0.0000000000
     35402      6154  TIP3      OH2            56.2078057973       55.0526240119       89.9290136428  TIP3      6018            0.0000000000
     35403      6154  TIP3      H1             57.0534054937       55.4257966151       89.6426894116  TIP3      6018            0.0000000000
     35404      6154  TIP3      H2             55.6406554444       55.8420193410       90.0492991147  TIP3      6018            0.0000000000
     35405      6155  TIP3      OH2            46.6690456243       50.4670522450       89.0458967683  TIP3      6019            0.0000000000
     35406      6155  TIP3      H1             46.2193284744       50.7863452620       88.2409782843  TIP3      6019            0.0000000000
     35407      6155  TIP3      H2             45.9716880574       50.6990262736       89.7083400454  TIP3      6019            0.0000000000
     35408      6156  TIP3      OH2            44.7662488646       51.5263389410       -0.4723450518  TIP3      6020            0.0000000000
     35409      6156  TIP3      H1             45.0675812706       51.2651010125        0.4293646280  TIP3      6020            0.0000000000
     35410      6156  TIP3      H2             44.0095521980       52.0770686883       -0.2444002940  TIP3      6020            0.0000000000
     35411      6157  TIP3      OH2            44.5616328768       40.0277631185       90.7035451837  TIP3      6021            0.0000000000
     35412      6157  TIP3      H1             43.7698788314       39.9661881736       90.1322301454  TIP3      6021            0.0000000000
     35413      6157  TIP3      H2             44.1266508846       40.1132657574       91.5947196506  TIP3      6021            0.0000000000
     35414      6158  TIP3      OH2            41.4151294127       51.3672752515       89.4680683817  TIP3      6022            0.0000000000
     35415      6158  TIP3      H1             41.5146658090       51.4616343545       90.4318970647  TIP3      6022            0.0000000000
     35416      6158  TIP3      H2             42.2703033216       50.9429912607       89.2565068341  TIP3      6022            0.0000000000
     35417      6159  TIP3      OH2            40.7047632036       44.1906584647       88.5752302980  TIP3      6023            0.0000000000
     35418      6159  TIP3      H1             40.2783022542       45.0616528278       88.5725054153  TIP3      6023            0.0000000000
     35419      6159  TIP3      H2             39.9670903722       43.5662809118       88.4291441482  TIP3      6023            0.0000000000
     35420      6160  TIP3      OH2            49.1035628401       53.4214542026       89.1727354677  TIP3      6024            0.0000000000
     35421      6160  TIP3      H1             48.4820484061       52.7151196490       89.4049683333  TIP3      6024            0.0000000000
     35422      6160  TIP3      H2             49.3492638485       53.1472603063       88.2763114890  TIP3      6024            0.0000000000
     35423      6161  TIP3      OH2            52.8089418127       53.2525219114       88.4209661597  TIP3      6025            0.0000000000
     35424      6161  TIP3      H1             52.7414141235       52.7143071708       89.2217125623  TIP3      6025            0.0000000000
     35425      6161  TIP3      H2             53.7577639825       53.1087774203       88.2455483787  TIP3      6025            0.0000000000
     35426      6162  TIP3      OH2            43.5189572704       49.5048555557       88.4559223482  TIP3      6026            0.0000000000
     35427      6162  TIP3      H1             43.7464450986       48.9755284518       89.2646888736  TIP3      6026            0.0000000000
     35428      6162  TIP3      H2             44.2245942079       49.1062901008       87.9037871774  TIP3      6026            0.0000000000
     35429      6163  TIP3      OH2            49.9187267159       50.3072788513       88.6695667539  TIP3      6027            0.0000000000
     35430      6163  TIP3      H1             49.5728034720       50.5529238052       89.5586588171  TIP3      6027            0.0000000000
     35431      6163  TIP3      H2             49.6532867599       49.3794304458       88.6755328845  TIP3      6027            0.0000000000
     35432      6164  TIP3      OH2            44.5104977934       47.8466164819       90.1786948779  TIP3      6028            0.0000000000
     35433      6164  TIP3      H1             44.5128670325       47.6144568100       91.1283685957  TIP3      6028            0.0000000000
     35434      6164  TIP3      H2             44.8345044119       47.0397046380       89.7334569256  TIP3      6028            0.0000000000
     35435      6165  TIP3      OH2            45.7907921219       45.6651193637       89.0505142061  TIP3      6029            0.0000000000
     35436      6165  TIP3      H1             46.0014756988       44.8015464093       88.6669337804  TIP3      6029            0.0000000000
     35437      6165  TIP3      H2             46.6844646182       46.0858561643       89.0677627751  TIP3      6029            0.0000000000
     35438      6166  TIP3      OH2            54.3664117204       48.4437955704       88.4300291735  TIP3      6030            0.0000000000
     35439      6166  TIP3      H1             54.3401575779       48.5999534586       87.4769196308  TIP3      6030            0.0000000000
     35440      6166  TIP3      H2             53.8732791028       49.2261963765       88.7837941593  TIP3      6030            0.0000000000
     35441      6167  TIP3      OH2            44.9092384250       56.1558035255       90.1149815505  TIP3      6031            0.0000000000
     35442      6167  TIP3      H1             45.7974771620       55.7810218386       89.9607838647  TIP3      6031            0.0000000000
     35443      6167  TIP3      H2             44.9160879116       56.9170176579       89.5188187013  TIP3      6031            0.0000000000
     35444      6168  TIP3      OH2            39.1225634511       49.9261073259       89.3508120642  TIP3      6032            0.0000000000
     35445      6168  TIP3      H1             39.9389395008       50.4775741394       89.3372621052  TIP3      6032            0.0000000000
     35446      6168  TIP3      H2             38.8520422904       50.0386566639       88.4252175105  TIP3      6032            0.0000000000
     35447      6169  TIP3      OH2            55.9296132909       47.4521223267       90.7146972502  TIP3      6033            0.0000000000
     35448      6169  TIP3      H1             55.4140132883       47.5963565104       89.8983305547  TIP3      6033            0.0000000000
     35449      6169  TIP3      H2             56.4586616953       48.2661755252       90.7635668451  TIP3      6033            0.0000000000
     35450      6170  TIP3      OH2            55.0213244092       43.7848175676       88.9970740820  TIP3      6034            0.0000000000
     35451      6170  TIP3      H1             55.0628567315       44.3104734483       88.1882036903  TIP3      6034            0.0000000000
     35452      6170  TIP3      H2             54.8955213802       42.9020276710       88.6149822381  TIP3      6034            0.0000000000
     35453      6171  TIP3      OH2            53.6502283349       41.5607842137       87.7748628998  TIP3      6035            0.0000000000
     35454      6171  TIP3      H1             54.2868314202       41.1425481131       88.3858367168  TIP3      6035            0.0000000000
     35455      6171  TIP3      H2             52.9047769831       41.8156732067       88.3391591838  TIP3      6035            0.0000000000
     35456      6172  TIP3      OH2            56.0626620195       40.9890676186       89.1810542346  TIP3      6036            0.0000000000
     35457      6172  TIP3      H1             56.5613932999       40.1853152872       89.4018734663  TIP3      6036            0.0000000000
     35458      6172  TIP3      H2             56.5881077597       41.3173062768       88.4224884459  TIP3      6036            0.0000000000
     35459      6173  TIP3      OH2            38.7673104796       38.5815064264       90.3405680650  TIP3      6037            0.0000000000
     35460      6173  TIP3      H1             39.7298404579       38.6439851945       90.2165819263  TIP3      6037            0.0000000000
     35461      6173  TIP3      H2             38.6618617381       38.6341782510       91.3145383496  TIP3      6037            0.0000000000
     35462      6174  TIP3      OH2            41.5083098735       39.6840720441       89.3565825843  TIP3      6038            0.0000000000
     35463      6174  TIP3      H1             41.1765940365       39.0048389284       88.7286289934  TIP3      6038            0.0000000000
     35464      6174  TIP3      H2             41.5540332535       40.4238800210       88.7335791655  TIP3      6038            0.0000000000
     35465      6175  TIP3      OH2            47.5743296028       55.6302157812       90.1352061044  TIP3      6039            0.0000000000
     35466      6175  TIP3      H1             47.9865637563       56.3413014379       89.6227898903  TIP3      6039            0.0000000000
     35467      6175  TIP3      H2             48.0111571144       54.8497337490       89.7269627502  TIP3      6039            0.0000000000
     35468      6176  TIP3      OH2            41.0327926238       55.1497526409       89.1125519787  TIP3      6040            0.0000000000
     35469      6176  TIP3      H1             41.1707915377       55.0937552661       90.0789482588  TIP3      6040            0.0000000000
     35470      6176  TIP3      H2             40.9716770329       54.2190543828       88.8503084020  TIP3      6040            0.0000000000
     35471      6177  TIP3      OH2            64.1657654849       42.1493692631       88.8258551615  TIP3      6041            0.0000000000
     35472      6177  TIP3      H1             63.9939359108       41.4132461023       89.4396468669  TIP3      6041            0.0000000000
     35473      6177  TIP3      H2             63.6985514210       42.8996883611       89.2509396900  TIP3      6041            0.0000000000
     35474      6178  TIP3      OH2            62.5550802293       43.9956478495       89.9190201351  TIP3      6042            0.0000000000
     35475      6178  TIP3      H1             61.8008381026       43.7894233515       89.3139835710  TIP3      6042            0.0000000000
     35476      6178  TIP3      H2             62.9207605060       44.7936136062       89.4859327427  TIP3      6042            0.0000000000
     35477      6179  TIP3      OH2            58.6367805841       47.1690056620       89.3012607287  TIP3      6043            0.0000000000
     35478      6179  TIP3      H1             58.8452988893       46.8541501940       90.2105320258  TIP3      6043            0.0000000000
     35479      6179  TIP3      H2             57.6694194144       47.1262486996       89.2776364470  TIP3      6043            0.0000000000
     35480      6180  TIP3      OH2            65.1740186216       51.5967550111       88.4922590472  TIP3      6044            0.0000000000
     35481      6180  TIP3      H1             64.9891851781       51.0057019732       87.7451987914  TIP3      6044            0.0000000000
     35482      6180  TIP3      H2             64.3604340128       51.5562840763       89.0337889253  TIP3      6044            0.0000000000
     35483      6181  TIP3      OH2            63.6049971013       52.0894782167       -0.3821287095  TIP3      6045            0.0000000000
     35484      6181  TIP3      H1             63.7024833527       51.5561927961        0.4416519854  TIP3      6045            0.0000000000
     35485      6181  TIP3      H2             64.3570480344       52.6982322897       -0.3245586440  TIP3      6045            0.0000000000
     35486      6182  TIP3      OH2            62.9564209285       40.2707173997       -0.3242302317  TIP3      6046            0.0000000000
     35487      6182  TIP3      H1             62.4227018845       41.0724656702       -0.3493418507  TIP3      6046            0.0000000000
     35488      6182  TIP3      H2             62.8339336169       40.0299895959        0.6148242574  TIP3      6046            0.0000000000
     35489      6183  TIP3      OH2            60.9180734401       51.3593325050       89.8852292672  TIP3      6047            0.0000000000
     35490      6183  TIP3      H1             61.7697997214       51.7438555029       90.1561373636  TIP3      6047            0.0000000000
     35491      6183  TIP3      H2             61.2252859156       50.5244982984       89.4980392559  TIP3      6047            0.0000000000
     35492      6184  TIP3      OH2            60.0788339025       43.6377398088       88.7850172872  TIP3      6048            0.0000000000
     35493      6184  TIP3      H1             60.0154638703       44.1898287936       89.5871520159  TIP3      6048            0.0000000000
     35494      6184  TIP3      H2             59.1709983195       43.2970019140       88.7533131538  TIP3      6048            0.0000000000
     35495      6185  TIP3      OH2            62.3845417767       49.4876729378       88.5427057818  TIP3      6049            0.0000000000
     35496      6185  TIP3      H1             62.4590505693       48.8748705213       89.3142304462  TIP3      6049            0.0000000000
     35497      6185  TIP3      H2             63.1040144283       49.1378558656       87.9889198770  TIP3      6049            0.0000000000
     35498      6186  TIP3      OH2            62.6653453287       47.9900488125       90.6286437177  TIP3      6050            0.0000000000
     35499      6186  TIP3      H1             62.4864136314       47.8237663134       91.5760041877  TIP3      6050            0.0000000000
     35500      6186  TIP3      H2             63.1633587237       47.1897334714       90.4162856246  TIP3      6050            0.0000000000
     35501      6187  TIP3      OH2            64.3658448187       45.6612666236       88.5273967717  TIP3      6051            0.0000000000
     35502      6187  TIP3      H1             64.1727728362       45.0958086432       87.7520851600  TIP3      6051            0.0000000000
     35503      6187  TIP3      H2             65.0841849933       46.2284671770       88.2059297665  TIP3      6051            0.0000000000
     35504      6188  TIP3      OH2            64.8818597245       55.9530651943       89.5612167379  TIP3      6052            0.0000000000
     35505      6188  TIP3      H1             65.7349804595       56.4226602034       89.7299679161  TIP3      6052            0.0000000000
     35506      6188  TIP3      H2             64.3926442034       56.6339829781       89.0869542474  TIP3      6052            0.0000000000
     35507      6189  TIP3      OH2            57.9342230227       50.4441259289       89.7747104955  TIP3      6053            0.0000000000
     35508      6189  TIP3      H1             58.8355932151       50.7808684615       89.6284151325  TIP3      6053            0.0000000000
     35509      6189  TIP3      H2             57.6990920561       50.1919275830       88.8687715820  TIP3      6053            0.0000000000
     35510      6190  TIP3      OH2            57.4902767631       38.5683094826       90.6461635031  TIP3      6054            0.0000000000
     35511      6190  TIP3      H1             58.2821126627       38.9532054613       90.2159754139  TIP3      6054            0.0000000000
     35512      6190  TIP3      H2             57.8251940703       38.4319703074       91.5571447067  TIP3      6054            0.0000000000
     35513      6191  TIP3      OH2            59.6534206489       39.9841943904       89.3399234668  TIP3      6055            0.0000000000
     35514      6191  TIP3      H1             60.5046884270       39.7511767034       88.9348044478  TIP3      6055            0.0000000000
     35515      6191  TIP3      H2             59.6710682491       40.9498944809       89.2537064756  TIP3      6055            0.0000000000
     35516      6192  TIP3      OH2            59.6388449108       54.5208508954       89.0746193082  TIP3      6056            0.0000000000
     35517      6192  TIP3      H1             59.6424251340       55.2173132857       89.7612085529  TIP3      6056            0.0000000000
     35518      6192  TIP3      H2             60.5591680099       54.5101500024       88.8042200676  TIP3      6056            0.0000000000
     35519      6193  TIP3      OH2            11.5246949281       64.4133901836       89.4750118357  TIP3      6057            0.0000000000
     35520      6193  TIP3      H1             11.7258725572       65.0273977926       88.7441841116  TIP3      6057            0.0000000000
     35521      6193  TIP3      H2             12.2264707822       63.7393398328       89.3926422925  TIP3      6057            0.0000000000
     35522      6194  TIP3      OH2            16.4647194206       56.6936866815       -0.2564210271  TIP3      6058            0.0000000000
     35523      6194  TIP3      H1             15.8987950874       57.0923539842        0.4188869603  TIP3      6058            0.0000000000
     35524      6194  TIP3      H2             17.3469878410       57.0213643803       -0.0010175638  TIP3      6058            0.0000000000
     35525      6195  TIP3      OH2            14.5777223545       66.2592507001       88.8297501008  TIP3      6059            0.0000000000
     35526      6195  TIP3      H1             15.0830962582       65.4413087714       88.9460777240  TIP3      6059            0.0000000000
     35527      6195  TIP3      H2             14.7522226356       66.6455841607       89.7125234272  TIP3      6059            0.0000000000
     35528      6196  TIP3      OH2            10.3432975614       60.2382119076       89.7394156564  TIP3      6060            0.0000000000
     35529      6196  TIP3      H1             10.1187820841       59.7653835058       90.5695841791  TIP3      6060            0.0000000000
     35530      6196  TIP3      H2              9.5780760993       60.0043086904       89.1806590192  TIP3      6060            0.0000000000
     35531      6197  TIP3      OH2             7.7126041618       60.2040026888       88.5621065508  TIP3      6061            0.0000000000
     35532      6197  TIP3      H1              7.4187105935       60.2360687943       89.5094253746  TIP3      6061            0.0000000000
     35533      6197  TIP3      H2              7.5995931606       61.1273999293       88.2793383161  TIP3      6061            0.0000000000
     35534      6198  TIP3      OH2             5.7083775908       62.9435433803       89.6033167105  TIP3      6062            0.0000000000
     35535      6198  TIP3      H1              5.1289560211       62.9250643144       88.8268461767  TIP3      6062            0.0000000000
     35536      6198  TIP3      H2              6.3730119264       63.5969757768       89.3291626988  TIP3      6062            0.0000000000
     35537      6199  TIP3      OH2            12.7980211689       61.4960190789       89.5681342352  TIP3      6063            0.0000000000
     35538      6199  TIP3      H1             11.8815208582       61.2002783644       89.7665214650  TIP3      6063            0.0000000000
     35539      6199  TIP3      H2             13.3018169535       60.8872150064       90.1253479607  TIP3      6063            0.0000000000
     35540      6200  TIP3      OH2             1.4722355609       65.1510254020       89.4626685018  TIP3      6064            0.0000000000
     35541      6200  TIP3      H1              2.1279004266       65.7061937943       89.9009130522  TIP3      6064            0.0000000000
     35542      6200  TIP3      H2              1.1624689869       65.8047173300       88.8014434525  TIP3      6064            0.0000000000
     35543      6201  TIP3      OH2             6.6667738815       59.7775526167       -0.1471603059  TIP3      6065            0.0000000000
     35544      6201  TIP3      H1              5.7888725661       59.8481828200       -0.5510239104  TIP3      6065            0.0000000000
     35545      6201  TIP3      H2              6.3874966082       59.3560534097        0.6858721410  TIP3      6065            0.0000000000
     35546      6202  TIP3      OH2             3.0215349033       62.7146557128       88.5468258360  TIP3      6066            0.0000000000
     35547      6202  TIP3      H1              2.8684394821       63.5967107335       88.9129389482  TIP3      6066            0.0000000000
     35548      6202  TIP3      H2              2.9152566536       62.1769971703       89.3557942237  TIP3      6066            0.0000000000
     35549      6203  TIP3      OH2             6.5249216866        1.0590155351       89.9319056275  TIP3      6067            0.0000000000
     35550      6203  TIP3      H1              6.4702981842        0.5956154423       90.7970981818  TIP3      6067            0.0000000000
     35551      6203  TIP3      H2              7.0096677663        0.4128903706       89.3805574921  TIP3      6067            0.0000000000
     35552      6204  TIP3      OH2             8.6873973373       63.6885343502       89.5633208538  TIP3      6068            0.0000000000
     35553      6204  TIP3      H1              8.4708604427       64.1033353756       88.7161248183  TIP3      6068            0.0000000000
     35554      6204  TIP3      H2              9.6605551296       63.6752108280       89.5573483806  TIP3      6068            0.0000000000
     35555      6205  TIP3      OH2            18.7711869265       65.2826395302       90.0396562550  TIP3      6069            0.0000000000
     35556      6205  TIP3      H1             17.9354363495       65.6567864808       89.7200327868  TIP3      6069            0.0000000000
     35557      6205  TIP3      H2             18.6456489209       65.2619362435       91.0120979358  TIP3      6069            0.0000000000
     35558      6206  TIP3      OH2            16.9643313319       63.0682384300       88.6549752416  TIP3      6070            0.0000000000
     35559      6206  TIP3      H1             17.4285679302       63.4303319874       87.8796153180  TIP3      6070            0.0000000000
     35560      6206  TIP3      H2             16.5344454914       62.2731918352       88.2814327305  TIP3      6070            0.0000000000
     35561      6207  TIP3      OH2            16.1606773577       60.5133601999       88.1398531832  TIP3      6071            0.0000000000
     35562      6207  TIP3      H1             17.0417201019       60.1785337016       88.4187070565  TIP3      6071            0.0000000000
     35563      6207  TIP3      H2             15.5984165874       60.1973726151       88.8635180083  TIP3      6071            0.0000000000
     35564      6208  TIP3      OH2            18.4003847717       59.3341489663       89.4089880338  TIP3      6072            0.0000000000
     35565      6208  TIP3      H1             18.8960066966       58.5303197060       89.6880134090  TIP3      6072            0.0000000000
     35566      6208  TIP3      H2             18.9679066918       59.6353885735       88.6715128081  TIP3      6072            0.0000000000
     35567      6209  TIP3      OH2             0.5512830593       57.3867457395       90.5081067002  TIP3      6073            0.0000000000
     35568      6209  TIP3      H1              1.4319567514       57.6733455156       90.2329927659  TIP3      6073            0.0000000000
     35569      6209  TIP3      H2              0.5796708156       57.5637908975       91.4559322821  TIP3      6073            0.0000000000
     35570      6210  TIP3      OH2             4.0429844930       58.4226571546       89.5078845502  TIP3      6074            0.0000000000
     35571      6210  TIP3      H1              4.6492898038       57.7922140494       89.0862578928  TIP3      6074            0.0000000000
     35572      6210  TIP3      H2              3.5486004559       58.7180510093       88.7295104784  TIP3      6074            0.0000000000
     35573      6211  TIP3      OH2            30.0313658780       64.3637375836       89.0591782012  TIP3      6075            0.0000000000
     35574      6211  TIP3      H1             30.0312701189       64.4543232590       90.0258390891  TIP3      6075            0.0000000000
     35575      6211  TIP3      H2             30.9760412087       64.2390610373       88.8594003223  TIP3      6075            0.0000000000
     35576      6212  TIP3      OH2            35.5126039408       56.5623005233       -0.0750111172  TIP3      6076            0.0000000000
     35577      6212  TIP3      H1             34.6207096364       56.8825778503        0.1124039610  TIP3      6076            0.0000000000
     35578      6212  TIP3      H2             36.0776201404       57.3393086006        0.1039892470  TIP3      6076            0.0000000000
     35579      6213  TIP3      OH2            32.8639029373       65.7464553831       89.3924204771  TIP3      6077            0.0000000000
     35580      6213  TIP3      H1             33.8366975515       65.8129622742       89.4529014437  TIP3      6077            0.0000000000
     35581      6213  TIP3      H2             32.6300127737       66.4780184082       89.9648057019  TIP3      6077            0.0000000000
     35582      6214  TIP3      OH2            29.0790257857       60.4221660734       89.9416509162  TIP3      6078            0.0000000000
     35583      6214  TIP3      H1             28.7808703784       60.0691347326       90.8051311452  TIP3      6078            0.0000000000
     35584      6214  TIP3      H2             28.8708969198       59.6840462426       89.3547232776  TIP3      6078            0.0000000000
     35585      6215  TIP3      OH2            26.1046412511       60.8742069999       88.5492719156  TIP3      6079            0.0000000000
     35586      6215  TIP3      H1             26.1983920146       60.4623032468       89.4358001129  TIP3      6079            0.0000000000
     35587      6215  TIP3      H2             25.6119448889       61.6861771861       88.7790103053  TIP3      6079            0.0000000000
     35588      6216  TIP3      OH2            24.6414394260       62.9412307811       89.5082354433  TIP3      6080            0.0000000000
     35589      6216  TIP3      H1             23.7867841268       62.8342326425       89.0458065466  TIP3      6080            0.0000000000
     35590      6216  TIP3      H2             25.0342109941       63.6426202252       88.9594065408  TIP3      6080            0.0000000000
     35591      6217  TIP3      OH2            31.7609446475       61.1262720004       89.5441820944  TIP3      6081            0.0000000000
     35592      6217  TIP3      H1             30.8007192557       60.9545328309       89.6292464864  TIP3      6081            0.0000000000
     35593      6217  TIP3      H2             32.1339134881       60.6502680511       90.2918069947  TIP3      6081            0.0000000000
     35594      6218  TIP3      OH2            21.7090975241       64.9031628381       89.2259402364  TIP3      6082            0.0000000000
     35595      6218  TIP3      H1             22.2362729813       65.6933390048       89.4191188902  TIP3      6082            0.0000000000
     35596      6218  TIP3      H2             20.8478543798       65.3048910859       89.0179461859  TIP3      6082            0.0000000000
     35597      6219  TIP3      OH2            25.4147849614       59.7238269287       -0.1131868900  TIP3      6083            0.0000000000
     35598      6219  TIP3      H1             24.6165452009       60.2540634378       -0.2602888055  TIP3      6083            0.0000000000
     35599      6219  TIP3      H2             25.1424000796       59.1576423156        0.6334819256  TIP3      6083            0.0000000000
     35600      6220  TIP3      OH2            21.7817718475       62.2323425594       88.8684618724  TIP3      6084            0.0000000000
     35601      6220  TIP3      H1             21.8025029431       63.2159334500       88.9555218931  TIP3      6084            0.0000000000
     35602      6220  TIP3      H2             21.5427718232       62.0144641497       89.7952755382  TIP3      6084            0.0000000000
     35603      6221  TIP3      OH2            24.6886972719        0.3309907225       90.0585750496  TIP3      6085            0.0000000000
     35604      6221  TIP3      H1             25.0936743968        0.3217906288       90.9496386800  TIP3      6085            0.0000000000
     35605      6221  TIP3      H2             25.2969348469       -0.2276115200       89.5519913145  TIP3      6085            0.0000000000
     35606      6222  TIP3      OH2            27.0157917253       64.6729661436       88.5831530544  TIP3      6086            0.0000000000
     35607      6222  TIP3      H1             26.9434057024       63.9320932802       87.9645722475  TIP3      6086            0.0000000000
     35608      6222  TIP3      H2             27.9857030143       64.7072330807       88.7284896076  TIP3      6086            0.0000000000
     35609      6223  TIP3      OH2            37.5814011648       65.0895464873       89.8091423771  TIP3      6087            0.0000000000
     35610      6223  TIP3      H1             36.8203525325       65.6916446779       89.7352572657  TIP3      6087            0.0000000000
     35611      6223  TIP3      H2             37.2694631143       64.4476399941       90.4651942567  TIP3      6087            0.0000000000
     35612      6224  TIP3      OH2            35.8486056876       62.9233324216       88.7684615985  TIP3      6088            0.0000000000
     35613      6224  TIP3      H1             35.9533213295       63.4596553215       87.9684268155  TIP3      6088            0.0000000000
     35614      6224  TIP3      H2             35.4753416767       62.1079843684       88.3726725440  TIP3      6088            0.0000000000
     35615      6225  TIP3      OH2            35.0361240157       60.4776401978       87.8972696016  TIP3      6089            0.0000000000
     35616      6225  TIP3      H1             35.3123519823       60.0703857926       88.7286912154  TIP3      6089            0.0000000000
     35617      6225  TIP3      H2             34.0655491320       60.5018734808       87.9963136925  TIP3      6089            0.0000000000
     35618      6226  TIP3      OH2            37.6699936573       59.3902768052       89.6113754897  TIP3      6090            0.0000000000
     35619      6226  TIP3      H1             38.0542216590       58.4958129831       89.5255701834  TIP3      6090            0.0000000000
     35620      6226  TIP3      H2             38.1287111370       59.8553781522       88.8812146724  TIP3      6090            0.0000000000
     35621      6227  TIP3      OH2            19.7923854251       57.0200162572       90.4544526191  TIP3      6091            0.0000000000
     35622      6227  TIP3      H1             20.7071836785       57.3155764779       90.2837451208  TIP3      6091            0.0000000000
     35623      6227  TIP3      H2             19.8858066194       56.5989549080       91.3277548378  TIP3      6091            0.0000000000
     35624      6228  TIP3      OH2            22.1982679212       58.7101977208       89.3197912142  TIP3      6092            0.0000000000
     35625      6228  TIP3      H1             22.8885953278       58.2364039845       88.8222032798  TIP3      6092            0.0000000000
     35626      6228  TIP3      H2             22.2882304876       59.6023875772       88.9480207656  TIP3      6092            0.0000000000
     35627      6229  TIP3      OH2            48.7371178072       64.1825729045       89.3560896013  TIP3      6093            0.0000000000
     35628      6229  TIP3      H1             48.9906829442       63.9854550741       90.2734887902  TIP3      6093            0.0000000000
     35629      6229  TIP3      H2             49.5560816026       64.0234190637       88.8582269328  TIP3      6093            0.0000000000
     35630      6230  TIP3      OH2            54.2837194953       56.9102748686       90.8124882662  TIP3      6094            0.0000000000
     35631      6230  TIP3      H1             53.3542197214       56.7965727100       90.5565060272  TIP3      6094            0.0000000000
     35632      6230  TIP3      H2             54.3856081136       57.8728471281       90.9156999644  TIP3      6094            0.0000000000
     35633      6231  TIP3      OH2            51.8304393739       66.0845031274       89.4498028323  TIP3      6095            0.0000000000
     35634      6231  TIP3      H1             52.5943869227       66.1636093545       88.8496188160  TIP3      6095            0.0000000000
     35635      6231  TIP3      H2             52.2663053564       66.4581377098       90.2350140563  TIP3      6095            0.0000000000
     35636      6232  TIP3      OH2            47.7032494632       60.3179116489       89.8092694244  TIP3      6096            0.0000000000
     35637      6232  TIP3      H1             47.4920333049       59.7136749595       90.5536760113  TIP3      6096            0.0000000000
     35638      6232  TIP3      H2             46.8608402157       60.3627725039       89.3319512302  TIP3      6096            0.0000000000
     35639      6233  TIP3      OH2            44.9256788993       60.8092708889       88.7662667415  TIP3      6097            0.0000000000
     35640      6233  TIP3      H1             44.8437865998       60.2197619761       89.5552534658  TIP3      6097            0.0000000000
     35641      6233  TIP3      H2             44.2101611915       61.4474364253       88.9681318927  TIP3      6097            0.0000000000
     35642      6234  TIP3      OH2            43.0639051828       62.5583152329       89.8584463316  TIP3      6098            0.0000000000
     35643      6234  TIP3      H1             42.2726501273       62.4485925947       89.2824458733  TIP3      6098            0.0000000000
     35644      6234  TIP3      H2             43.4937681697       63.3016733344       89.4053956464  TIP3      6098            0.0000000000
     35645      6235  TIP3      OH2            50.3482979110       61.1528357621       89.5328679992  TIP3      6099            0.0000000000
     35646      6235  TIP3      H1             49.3963577019       60.9122443012       89.6438175734  TIP3      6099            0.0000000000
     35647      6235  TIP3      H2             50.7567681776       60.7154812356       90.2968432173  TIP3      6099            0.0000000000
     35648      6236  TIP3      OH2            40.5864511887       64.8438549352       89.1041193182  TIP3      6100            0.0000000000
     35649      6236  TIP3      H1             41.0640107926       65.5380020859       89.5880307515  TIP3      6100            0.0000000000
     35650      6236  TIP3      H2             39.7314260210       65.2859195352       88.9486969754  TIP3      6100            0.0000000000
     35651      6237  TIP3      OH2            44.2773499861       59.5607105849       -0.0765917118  TIP3      6101            0.0000000000
     35652      6237  TIP3      H1             43.9786674738       60.4573355464        0.1645280269  TIP3      6101            0.0000000000
     35653      6237  TIP3      H2             43.8279294056       59.0445560707        0.6254551815  TIP3      6101            0.0000000000
     35654      6238  TIP3      OH2            40.7132202632       62.2661023371       88.6478879748  TIP3      6102            0.0000000000
     35655      6238  TIP3      H1             40.6642491933       63.2420978797       88.8048199244  TIP3      6102            0.0000000000
     35656      6238  TIP3      H2             40.2484079062       61.9643833300       89.4578548714  TIP3      6102            0.0000000000
     35657      6239  TIP3      OH2            43.6709862427        0.3749616752       90.2190689573  TIP3      6103            0.0000000000
     35658      6239  TIP3      H1             43.7035101647        0.3059935690       91.1995979554  TIP3      6103            0.0000000000
     35659      6239  TIP3      H2             44.4702672466       -0.1182379655       89.9921698712  TIP3      6103            0.0000000000
     35660      6240  TIP3      OH2            45.9734889145       64.4856728066       88.9348959266  TIP3      6104            0.0000000000
     35661      6240  TIP3      H1             45.9198126782       63.6428309108       88.4669628846  TIP3      6104            0.0000000000
     35662      6240  TIP3      H2             46.9428837910       64.5370650758       89.1085408643  TIP3      6104            0.0000000000
     35663      6241  TIP3      OH2            56.2455995291       64.9895002374       89.8431900773  TIP3      6105            0.0000000000
     35664      6241  TIP3      H1             55.5403713839       65.6536232979       89.9632343754  TIP3      6105            0.0000000000
     35665      6241  TIP3      H2             56.4185453641       64.7203386128       90.7717218800  TIP3      6105            0.0000000000
     35666      6242  TIP3      OH2            54.3652259236       63.2049202992       88.6964607390  TIP3      6106            0.0000000000
     35667      6242  TIP3      H1             55.2584430310       63.5855570301       88.6181700259  TIP3      6106            0.0000000000
     35668      6242  TIP3      H2             54.5047751080       62.2646998066       88.4358786052  TIP3      6106            0.0000000000
     35669      6243  TIP3      OH2            54.0171509754       60.6105832901       88.3286512981  TIP3      6107            0.0000000000
     35670      6243  TIP3      H1             54.6170924144       59.9235024684       88.7065977743  TIP3      6107            0.0000000000
     35671      6243  TIP3      H2             53.1352138191       60.3705837295       88.6328901270  TIP3      6107            0.0000000000
     35672      6244  TIP3      OH2            56.1542343329       59.3876630197       89.4747573453  TIP3      6108            0.0000000000
     35673      6244  TIP3      H1             55.9948574093       58.4746510238       89.1608460892  TIP3      6108            0.0000000000
     35674      6244  TIP3      H2             57.1255022909       59.3875879393       89.4531877876  TIP3      6108            0.0000000000
     35675      6245  TIP3      OH2            38.9582871868       56.8292335993       90.4806253554  TIP3      6109            0.0000000000
     35676      6245  TIP3      H1             39.7905900208       56.7835933824       89.9675504299  TIP3      6109            0.0000000000
     35677      6245  TIP3      H2             39.2999400354       56.9554190044       91.3928288701  TIP3      6109            0.0000000000
     35678      6246  TIP3      OH2            41.0292580495       58.2748427871       89.3320419300  TIP3      6110            0.0000000000
     35679      6246  TIP3      H1             41.3311194642       57.8369584046       88.5163434152  TIP3      6110            0.0000000000
     35680      6246  TIP3      H2             41.2041236780       59.2077421760       89.1226601275  TIP3      6110            0.0000000000
     35681      6247  TIP3      OH2            63.7006768382       60.7561021693       89.2042954209  TIP3      6111            0.0000000000
     35682      6247  TIP3      H1             63.3864062425       60.1429751285       89.8988173875  TIP3      6111            0.0000000000
     35683      6247  TIP3      H2             63.2598314887       61.5904347905       89.4526656195  TIP3      6111            0.0000000000
     35684      6248  TIP3      OH2            62.5623827724       63.0817222684       89.5626382128  TIP3      6112            0.0000000000
     35685      6248  TIP3      H1             61.7247621492       62.9277926444       89.0769937121  TIP3      6112            0.0000000000
     35686      6248  TIP3      H2             62.9727412172       63.6973662061       88.9278999935  TIP3      6112            0.0000000000
     35687      6249  TIP3      OH2            58.9160980298       64.7428763940       89.1200277769  TIP3      6113            0.0000000000
     35688      6249  TIP3      H1             59.3421925686       65.5063232998       89.5381994167  TIP3      6113            0.0000000000
     35689      6249  TIP3      H2             57.9592165445       64.8887673489       89.2648775346  TIP3      6113            0.0000000000
     35690      6250  TIP3      OH2            62.4901361032       59.3616142910        0.1010991132  TIP3      6114            0.0000000000
     35691      6250  TIP3      H1             62.5142866124       60.0175511927        0.8162796477  TIP3      6114            0.0000000000
     35692      6250  TIP3      H2             62.5897088145       58.5450770756        0.6152513116  TIP3      6114            0.0000000000
     35693      6251  TIP3      OH2            59.7595412653       62.1910283566       89.0547826469  TIP3      6115            0.0000000000
     35694      6251  TIP3      H1             59.6380617822       63.1511100498       89.2496162646  TIP3      6115            0.0000000000
     35695      6251  TIP3      H2             58.9220731498       61.8238541337       89.3599128585  TIP3      6115            0.0000000000
     35696      6252  TIP3      OH2            63.3596572064       66.4682629064       91.0441964916  TIP3      6116            0.0000000000
     35697      6252  TIP3      H1             62.6157764556       65.8970754100       91.2631048221  TIP3      6116            0.0000000000
     35698      6252  TIP3      H2             63.7370521803       66.0475957992       90.2556711480  TIP3      6116            0.0000000000
     35699      6253  TIP3      OH2            64.8432626860       64.9324350622       88.2753937096  TIP3      6117            0.0000000000
     35700      6253  TIP3      H1             64.8964356381       64.1997829881       87.6447445889  TIP3      6117            0.0000000000
     35701      6253  TIP3      H2             65.7423121986       65.0040399097       88.6392737319  TIP3      6117            0.0000000000
     35702      6254  TIP3      OH2            58.0972692042       57.2500155673       -0.2170536418  TIP3      6118            0.0000000000
     35703      6254  TIP3      H1             58.9034867799       57.5753983690       -0.6670756898  TIP3      6118            0.0000000000
     35704      6254  TIP3      H2             58.3467113725       57.3657177593        0.7069271279  TIP3      6118            0.0000000000
     35705      6255  TIP3      OH2            60.2351660052       58.6552288463       89.5338005948  TIP3      6119            0.0000000000
     35706      6255  TIP3      H1             60.7964768809       58.6942309300       88.7438072062  TIP3      6119            0.0000000000
     35707      6255  TIP3      H2             60.8186141069       59.0328933808       90.2156269083  TIP3      6119            0.0000000000
     35708      6256  TIP3      OH2            10.7290950296        6.5889831237        1.4130823209  TIP3      6120            0.0000000000
     35709      6256  TIP3      H1             11.4813671487        7.1976756680        1.6130070453  TIP3      6120            0.0000000000
     35710      6256  TIP3      H2             10.8430966193        6.4173704959        0.4636583122  TIP3      6120            0.0000000000
     35711      6257  TIP3      OH2            12.6955067362        8.4013786799        1.8475434318  TIP3      6121            0.0000000000
     35712      6257  TIP3      H1             12.3442221000        9.0531876541        2.4748988072  TIP3      6121            0.0000000000
     35713      6257  TIP3      H2             13.4708058112        8.8264678783        1.4584945428  TIP3      6121            0.0000000000
     35714      6258  TIP3      OH2            16.6697477257        0.5479803387        2.4842094987  TIP3      6122            0.0000000000
     35715      6258  TIP3      H1             16.1295838299        1.2431546244        2.8798470450  TIP3      6122            0.0000000000
     35716      6258  TIP3      H2             17.4593903678        1.0770373488        2.2605592070  TIP3      6122            0.0000000000
     35717      6259  TIP3      OH2            17.6113622562       14.4098967525        1.4782103875  TIP3      6123            0.0000000000
     35718      6259  TIP3      H1             17.6592160361       15.3797687064        1.5919186254  TIP3      6123            0.0000000000
     35719      6259  TIP3      H2             18.4966119990       14.2329462455        1.1304077260  TIP3      6123            0.0000000000
     35720      6260  TIP3      OH2            13.8256015988       16.6680869918        1.0948278722  TIP3      6124            0.0000000000
     35721      6260  TIP3      H1             13.9172272221       15.7308951044        0.8847585710  TIP3      6124            0.0000000000
     35722      6260  TIP3      H2             14.3976938095       16.6801912253        1.8820903235  TIP3      6124            0.0000000000
     35723      6261  TIP3      OH2             9.1813932763        2.8507768799        1.2243145873  TIP3      6125            0.0000000000
     35724      6261  TIP3      H1              9.2824120668        3.6926583835        1.6954296138  TIP3      6125            0.0000000000
     35725      6261  TIP3      H2              9.3135594704        2.1881897863        1.9085985620  TIP3      6125            0.0000000000
     35726      6262  TIP3      OH2             1.3927029501        3.6560945827        2.1850085202  TIP3      6126            0.0000000000
     35727      6262  TIP3      H1              2.0493235302        4.3425313529        2.0080346737  TIP3      6126            0.0000000000
     35728      6262  TIP3      H2              0.6097859051        4.0289266995        1.7457798023  TIP3      6126            0.0000000000
     35729      6263  TIP3      OH2             5.9384165670        6.5622224865        1.7414974318  TIP3      6127            0.0000000000
     35730      6263  TIP3      H1              5.6012138201        6.4329780430        0.8304085141  TIP3      6127            0.0000000000
     35731      6263  TIP3      H2              6.8637141914        6.7903022447        1.5331623998  TIP3      6127            0.0000000000
     35732      6264  TIP3      OH2            12.6793975517        4.6243389464        2.4369997447  TIP3      6128            0.0000000000
     35733      6264  TIP3      H1             11.7725498019        4.9513423459        2.3470536252  TIP3      6128            0.0000000000
     35734      6264  TIP3      H2             13.1957745306        5.2930565380        1.9737183765  TIP3      6128            0.0000000000
     35735      6265  TIP3      OH2            11.1195116208       12.4012101599        2.9087148262  TIP3      6129            0.0000000000
     35736      6265  TIP3      H1             10.5099426704       13.1555603385        2.8767916060  TIP3      6129            0.0000000000
     35737      6265  TIP3      H2             10.7991225001       11.9268002158        3.6965929578  TIP3      6129            0.0000000000
     35738      6266  TIP3      OH2             0.8689800523        9.3595480837        1.9788724287  TIP3      6130            0.0000000000
     35739      6266  TIP3      H1              1.8120821714        9.5069359498        2.2021214317  TIP3      6130            0.0000000000
     35740      6266  TIP3      H2              0.5146965461       10.2356353824        2.1882683263  TIP3      6130            0.0000000000
     35741      6267  TIP3      OH2            13.8774386374       12.1546281199        1.1408267232  TIP3      6131            0.0000000000
     35742      6267  TIP3      H1             13.6985120858       12.7647140408        1.8705420723  TIP3      6131            0.0000000000
     35743      6267  TIP3      H2             12.9661811105       12.0176996604        0.8225325199  TIP3      6131            0.0000000000
     35744      6268  TIP3      OH2            18.1410990348       17.0713510203        2.1188303715  TIP3      6132            0.0000000000
     35745      6268  TIP3      H1             18.7361707967       17.7464695422        1.7658015253  TIP3      6132            0.0000000000
     35746      6268  TIP3      H2             17.8987799054       17.4621947355        2.9830622730  TIP3      6132            0.0000000000
     35747      6269  TIP3      OH2             8.1232229135       13.3700058373        2.3304465804  TIP3      6133            0.0000000000
     35748      6269  TIP3      H1              7.4801696099       12.6557947969        2.5485742850  TIP3      6133            0.0000000000
     35749      6269  TIP3      H2              7.7272892072       14.0782171540        2.8872391548  TIP3      6133            0.0000000000
     35750      6270  TIP3      OH2             3.3810165060       10.4990686409        2.5423204355  TIP3      6134            0.0000000000
     35751      6270  TIP3      H1              2.9222066286       11.2249400598        3.0215232925  TIP3      6134            0.0000000000
     35752      6270  TIP3      H2              4.2386981000       10.8992223421        2.3375262206  TIP3      6134            0.0000000000
     35753      6271  TIP3      OH2             9.5741714067       15.9570294041        3.3898587860  TIP3      6135            0.0000000000
     35754      6271  TIP3      H1              8.6748482649       15.8246095111        3.0428412312  TIP3      6135            0.0000000000
     35755      6271  TIP3      H2             10.0854656403       16.1906342817        2.5941001274  TIP3      6135            0.0000000000
     35756      6272  TIP3      OH2             6.8325301085       15.5986822914        3.0034420686  TIP3      6136            0.0000000000
     35757      6272  TIP3      H1              6.7611873355       16.2243595855        2.2652543131  TIP3      6136            0.0000000000
     35758      6272  TIP3      H2              6.6763807698       16.1854619455        3.7683081607  TIP3      6136            0.0000000000
     35759      6273  TIP3      OH2             5.0886352407        2.8761888121        2.2645471092  TIP3      6137            0.0000000000
     35760      6273  TIP3      H1              4.7942816574        3.6626464771        2.7450591113  TIP3      6137            0.0000000000
     35761      6273  TIP3      H2              6.0127291015        2.8566793000        2.5974752002  TIP3      6137            0.0000000000
     35762      6274  TIP3      OH2             4.6000452716       13.5198272504        1.0575400117  TIP3      6138            0.0000000000
     35763      6274  TIP3      H1              4.6789047653       14.3064511438        1.6083476198  TIP3      6138            0.0000000000
     35764      6274  TIP3      H2              5.4910282958       13.5192440354        0.6474408135  TIP3      6138            0.0000000000
     35765      6275  TIP3      OH2             2.5379788514        6.4166346325        0.8017409999  TIP3      6139            0.0000000000
     35766      6275  TIP3      H1              2.1095300196        7.2350080112        0.4940779012  TIP3      6139            0.0000000000
     35767      6275  TIP3      H2              3.2676441462        6.3681400961        0.1632842621  TIP3      6139            0.0000000000
     35768      6276  TIP3      OH2             6.6103660498        9.4412672761        1.8358794358  TIP3      6140            0.0000000000
     35769      6276  TIP3      H1              5.9922728163        8.7006080825        2.0054398953  TIP3      6140            0.0000000000
     35770      6276  TIP3      H2              7.4083055922        8.9673406527        1.5101883794  TIP3      6140            0.0000000000
     35771      6277  TIP3      OH2             8.3109085777        7.5839348003        0.7554900275  TIP3      6141            0.0000000000
     35772      6277  TIP3      H1              8.1878340790        7.1733802404       -0.1208640948  TIP3      6141            0.0000000000
     35773      6277  TIP3      H2              9.2274250267        7.2970741023        0.9843207875  TIP3      6141            0.0000000000
     35774      6278  TIP3      OH2             8.1393346390       18.3031079139        2.0058078776  TIP3      6142            0.0000000000
     35775      6278  TIP3      H1              9.0987070530       18.2060269965        1.8547266879  TIP3      6142            0.0000000000
     35776      6278  TIP3      H2              7.8075734249       18.2894032040        1.0776588671  TIP3      6142            0.0000000000
     35777      6279  TIP3      OH2             1.7522932066       12.4608454297        1.2023682270  TIP3      6143            0.0000000000
     35778      6279  TIP3      H1              2.6916200087       12.6765302797        1.2943598675  TIP3      6143            0.0000000000
     35779      6279  TIP3      H2              1.7438048889       12.1559392613        0.2794910261  TIP3      6143            0.0000000000
     35780      6280  TIP3      OH2            18.6820406439        8.0630317663        2.1743763108  TIP3      6144            0.0000000000
     35781      6280  TIP3      H1             18.4510196442        8.0653039748        1.2230537056  TIP3      6144            0.0000000000
     35782      6280  TIP3      H2             18.3567649780        8.9363322867        2.4584641935  TIP3      6144            0.0000000000
     35783      6281  TIP3      OH2            16.6733084909        6.2816326295        0.6981855218  TIP3      6145            0.0000000000
     35784      6281  TIP3      H1             16.9452801363        6.5179751246       -0.2151177487  TIP3      6145            0.0000000000
     35785      6281  TIP3      H2             16.6300178905        5.3281414599        0.6111942996  TIP3      6145            0.0000000000
     35786      6282  TIP3      OH2            18.0899305695        2.4140410252        1.0819749458  TIP3      6146            0.0000000000
     35787      6282  TIP3      H1             18.7340646492        2.0074563983        0.4611407638  TIP3      6146            0.0000000000
     35788      6282  TIP3      H2             18.6488045029        3.1511667281        1.4129255235  TIP3      6146            0.0000000000
     35789      6283  TIP3      OH2             1.1192827508        0.7884356224        2.1720345991  TIP3      6147            0.0000000000
     35790      6283  TIP3      H1              1.9565181345        0.9757106575        1.6886848722  TIP3      6147            0.0000000000
     35791      6283  TIP3      H2              1.0808030915        1.6002784989        2.7075300767  TIP3      6147            0.0000000000
     35792      6284  TIP3      OH2             3.3640565964        1.2255148389        0.7976349760  TIP3      6148            0.0000000000
     35793      6284  TIP3      H1              3.7225380803        1.4818496705       -0.0813777384  TIP3      6148            0.0000000000
     35794      6284  TIP3      H2              3.9111395611        1.8310206999        1.3377967218  TIP3      6148            0.0000000000
     35795      6285  TIP3      OH2            11.1193337231       17.4577436655        1.4637116101  TIP3      6149            0.0000000000
     35796      6285  TIP3      H1             12.0913277138       17.3612832890        1.4882861230  TIP3      6149            0.0000000000
     35797      6285  TIP3      H2             10.9727269799       17.6863114828        0.5188479295  TIP3      6149            0.0000000000
     35798      6286  TIP3      OH2             3.9389721449       16.9836279275        0.8610744483  TIP3      6150            0.0000000000
     35799      6286  TIP3      H1              3.5181475590       17.8458717559        0.6755908343  TIP3      6150            0.0000000000
     35800      6286  TIP3      H2              4.1402724945       17.1043985882        1.8052087648  TIP3      6150            0.0000000000
     35801      6287  TIP3      OH2            29.5187650082        6.7263112547        1.2389977421  TIP3      6151            0.0000000000
     35802      6287  TIP3      H1             30.2713679516        7.3097945160        1.4921452645  TIP3      6151            0.0000000000
     35803      6287  TIP3      H2             29.7587543341        6.5172889868        0.3288020929  TIP3      6151            0.0000000000
     35804      6288  TIP3      OH2            31.5139765470        8.3952198010        1.7165045321  TIP3      6152            0.0000000000
     35805      6288  TIP3      H1             31.3136884742        8.8761809644        2.5334031329  TIP3      6152            0.0000000000
     35806      6288  TIP3      H2             32.1841767410        8.9241262808        1.2531654962  TIP3      6152            0.0000000000
     35807      6289  TIP3      OH2            35.2197059988        0.7005025455        2.4170199992  TIP3      6153            0.0000000000
     35808      6289  TIP3      H1             34.5793320028        1.4045999411        2.5723529886  TIP3      6153            0.0000000000
     35809      6289  TIP3      H2             36.0118298584        1.2245292032        2.1704965223  TIP3      6153            0.0000000000
     35810      6290  TIP3      OH2            36.1785518254       14.4983598213        1.3538765942  TIP3      6154            0.0000000000
     35811      6290  TIP3      H1             36.3632774665       15.4429869156        1.5605448775  TIP3      6154            0.0000000000
     35812      6290  TIP3      H2             37.0331608028       14.2399022003        0.9868165146  TIP3      6154            0.0000000000
     35813      6291  TIP3      OH2            32.6739836367       16.8371100698        1.3764920309  TIP3      6155            0.0000000000
     35814      6291  TIP3      H1             33.2137113464       16.0457254566        1.2212803019  TIP3      6155            0.0000000000
     35815      6291  TIP3      H2             32.6774136401       16.8157770134        2.3546389527  TIP3      6155            0.0000000000
     35816      6292  TIP3      OH2            29.1426677836        2.8857699033        1.5193497813  TIP3      6156            0.0000000000
     35817      6292  TIP3      H1             28.2466038162        2.8083629483        1.8781278500  TIP3      6156            0.0000000000
     35818      6292  TIP3      H2             29.1917483048        2.1403888881        0.9068845057  TIP3      6156            0.0000000000
     35819      6293  TIP3      OH2            20.1795564759        3.9138370182        2.2353279679  TIP3      6157            0.0000000000
     35820      6293  TIP3      H1             20.6393293354        4.4237179090        1.5438860143  TIP3      6157            0.0000000000
     35821      6293  TIP3      H2             20.2974244346        4.5360421512        2.9736750791  TIP3      6157            0.0000000000
     35822      6294  TIP3      OH2            24.4870974473        6.6694831811        1.5648587530  TIP3      6158            0.0000000000
     35823      6294  TIP3      H1             23.7879231169        6.7097751194        0.8884286211  TIP3      6158            0.0000000000
     35824      6294  TIP3      H2             25.2865118012        6.7830318853        1.0146703659  TIP3      6158            0.0000000000
     35825      6295  TIP3      OH2            31.6026498600        4.2309699633        2.5067625460  TIP3      6159            0.0000000000
     35826      6295  TIP3      H1             30.6814997744        4.0877351988        2.2176558717  TIP3      6159            0.0000000000
     35827      6295  TIP3      H2             31.7462666765        5.1593516232        2.3004115087  TIP3      6159            0.0000000000
     35828      6296  TIP3      OH2            30.0069924442       12.3623426547        2.7454550166  TIP3      6160            0.0000000000
     35829      6296  TIP3      H1             29.5718657597       13.2157630712        2.9377272378  TIP3      6160            0.0000000000
     35830      6296  TIP3      H2             29.5874093791       11.7600198495        3.3861984860  TIP3      6160            0.0000000000
     35831      6297  TIP3      OH2            22.1036842874        8.6572577044        0.6219428240  TIP3      6161            0.0000000000
     35832      6297  TIP3      H1             22.4557313807        9.4671135219        1.0682055392  TIP3      6161            0.0000000000
     35833      6297  TIP3      H2             21.3004229005        8.5571617802        1.1556831250  TIP3      6161            0.0000000000
     35834      6298  TIP3      OH2            32.7227852227       11.9722004776        1.3625812950  TIP3      6162            0.0000000000
     35835      6298  TIP3      H1             32.5476173589       12.5687381156        2.1068029137  TIP3      6162            0.0000000000
     35836      6298  TIP3      H2             31.8171688062       11.8644892192        1.0252506548  TIP3      6162            0.0000000000
     35837      6299  TIP3      OH2            36.9935067683       17.1016936508        1.8663137999  TIP3      6163            0.0000000000
     35838      6299  TIP3      H1             37.6338237563       17.5339202922        1.2850299839  TIP3      6163            0.0000000000
     35839      6299  TIP3      H2             36.6683202507       17.8627411528        2.3805238181  TIP3      6163            0.0000000000
     35840      6300  TIP3      OH2            26.3285123215       13.4362974052        2.3966207981  TIP3      6164            0.0000000000
     35841      6300  TIP3      H1             26.5282211039       13.4228781603        3.3418211707  TIP3      6164            0.0000000000
     35842      6300  TIP3      H2             26.2718076207       14.4043774605        2.2586561163  TIP3      6164            0.0000000000
     35843      6301  TIP3      OH2            22.2737277997       10.8253438235        2.1064996722  TIP3      6165            0.0000000000
     35844      6301  TIP3      H1             21.6648086412       10.7427311965        2.8670166862  TIP3      6165            0.0000000000
     35845      6301  TIP3      H2             23.1374220442       10.9159391564        2.5611634332  TIP3      6165            0.0000000000
     35846      6302  TIP3      OH2            28.4155114301       15.5033845575        3.0567825245  TIP3      6166            0.0000000000
     35847      6302  TIP3      H1             27.5281556070       15.8428728600        2.8326750828  TIP3      6166            0.0000000000
     35848      6302  TIP3      H2             28.9906384526       15.9969579945        2.4480590351  TIP3      6166            0.0000000000
     35849      6303  TIP3      OH2            25.8327274435       16.1322759551        2.6186281582  TIP3      6167            0.0000000000
     35850      6303  TIP3      H1             25.2114373406       16.7731813139        2.2331027313  TIP3      6167            0.0000000000
     35851      6303  TIP3      H2             25.6461140261       16.2598867562        3.5650606536  TIP3      6167            0.0000000000
     35852      6304  TIP3      OH2            23.9081465418        2.7905336430        2.1275424356  TIP3      6168            0.0000000000
     35853      6304  TIP3      H1             24.1990914690        3.5561217702        2.6748996686  TIP3      6168            0.0000000000
     35854      6304  TIP3      H2             24.7573036402        2.3224302926        2.1108397439  TIP3      6168            0.0000000000
     35855      6305  TIP3      OH2            23.0868985663       13.7526658954        0.9633037698  TIP3      6169            0.0000000000
     35856      6305  TIP3      H1             23.0959932400       13.6272741714        1.9239382419  TIP3      6169            0.0000000000
     35857      6305  TIP3      H2             23.9463381257       13.3720252845        0.7162142087  TIP3      6169            0.0000000000
     35858      6306  TIP3      OH2            20.7139037893        6.0969254468        0.5681123954  TIP3      6170            0.0000000000
     35859      6306  TIP3      H1             21.2371398910        6.9111207024        0.5937794373  TIP3      6170            0.0000000000
     35860      6306  TIP3      H2             19.8184488457        6.4209779729        0.3738705374  TIP3      6170            0.0000000000
     35861      6307  TIP3      OH2            25.5767987221        9.3304186611        1.9462445262  TIP3      6171            0.0000000000
     35862      6307  TIP3      H1             25.0269847483        8.5291270552        2.0680612397  TIP3      6171            0.0000000000
     35863      6307  TIP3      H2             26.3227635999        8.9698768338        1.4283318116  TIP3      6171            0.0000000000
     35864      6308  TIP3      OH2            27.0305516562        7.5629718628        0.5079595696  TIP3      6172            0.0000000000
     35865      6308  TIP3      H1             27.1018132843        7.5950194429       -0.4643334740  TIP3      6172            0.0000000000
     35866      6308  TIP3      H2             27.9190129451        7.2263817736        0.7820564341  TIP3      6172            0.0000000000
     35867      6309  TIP3      OH2            27.0964847891       18.8113660549        1.7333729272  TIP3      6173            0.0000000000
     35868      6309  TIP3      H1             27.9364361782       18.3532311761        1.5683553820  TIP3      6173            0.0000000000
     35869      6309  TIP3      H2             26.6808178093       18.7109667411        0.8551745185  TIP3      6173            0.0000000000
     35870      6310  TIP3      OH2            20.4252738703       13.1665441568        1.2227290592  TIP3      6174            0.0000000000
     35871      6310  TIP3      H1             21.3962730942       13.1445779833        1.1421351946  TIP3      6174            0.0000000000
     35872      6310  TIP3      H2             20.2215596187       12.8256370447        0.3311983583  TIP3      6174            0.0000000000
     35873      6311  TIP3      OH2            37.3546095444        8.2645459949        2.3769768619  TIP3      6175            0.0000000000
     35874      6311  TIP3      H1             37.1745686031        8.1970235708        1.4206355743  TIP3      6175            0.0000000000
     35875      6311  TIP3      H2             37.2951696766        9.2239251414        2.5394480304  TIP3      6175            0.0000000000
     35876      6312  TIP3      OH2            35.5075524811        6.3076769195        0.6466870164  TIP3      6176            0.0000000000
     35877      6312  TIP3      H1             35.8649324976        6.5590246691       -0.2292134961  TIP3      6176            0.0000000000
     35878      6312  TIP3      H2             35.6356220899        5.3562933261        0.6682468340  TIP3      6176            0.0000000000
     35879      6313  TIP3      OH2            36.8364073278        2.5256136859        1.0676765403  TIP3      6177            0.0000000000
     35880      6313  TIP3      H1             37.5711696721        2.1004852347        0.5673541890  TIP3      6177            0.0000000000
     35881      6313  TIP3      H2             37.3176078468        3.3121951228        1.3857677563  TIP3      6177            0.0000000000
     35882      6314  TIP3      OH2            20.0643171147        0.7741497818        2.7799971068  TIP3      6178            0.0000000000
     35883      6314  TIP3      H1             20.9918462727        0.9047841092        3.0332437107  TIP3      6178            0.0000000000
     35884      6314  TIP3      H2             19.8262343703        1.6637510409        2.4823243956  TIP3      6178            0.0000000000
     35885      6315  TIP3      OH2            22.5129503096        0.6845625446        0.9571587645  TIP3      6179            0.0000000000
     35886      6315  TIP3      H1             22.8761752965        0.7970888425        0.0540507559  TIP3      6179            0.0000000000
     35887      6315  TIP3      H2             22.7893191024        1.5407459226        1.3463934603  TIP3      6179            0.0000000000
     35888      6316  TIP3      OH2            29.8177548705       17.2558177542        1.4778372441  TIP3      6180            0.0000000000
     35889      6316  TIP3      H1             30.7609754234       17.4875825870        1.5648875503  TIP3      6180            0.0000000000
     35890      6316  TIP3      H2             29.7925390013       16.8042254054        0.6140533865  TIP3      6180            0.0000000000
     35891      6317  TIP3      OH2            22.4558614472       17.7477325550        0.8429693648  TIP3      6181            0.0000000000
     35892      6317  TIP3      H1             22.0514992050       18.0174490953        1.6883593828  TIP3      6181            0.0000000000
     35893      6317  TIP3      H2             22.1883393446       16.8261191670        0.7710637689  TIP3      6181            0.0000000000
     35894      6318  TIP3      OH2            48.4777100864        7.0424503413        1.4523846857  TIP3      6182            0.0000000000
     35895      6318  TIP3      H1             49.2943173959        7.5658199488        1.6181049441  TIP3      6182            0.0000000000
     35896      6318  TIP3      H2             48.6726849872        6.6557306269        0.5872838950  TIP3      6182            0.0000000000
     35897      6319  TIP3      OH2            50.6664795291        8.6636594735        1.8770592497  TIP3      6183            0.0000000000
     35898      6319  TIP3      H1             50.5536506600        9.2872258732        2.6097173715  TIP3      6183            0.0000000000
     35899      6319  TIP3      H2             51.4040424199        9.0276807392        1.3681298772  TIP3      6183            0.0000000000
     35900      6320  TIP3      OH2            54.2702101270        0.1451542355        2.3665883576  TIP3      6184            0.0000000000
     35901      6320  TIP3      H1             53.4429654499        0.5797786875        2.6085883982  TIP3      6184            0.0000000000
     35902      6320  TIP3      H2             54.8672625784        0.9284352787        2.3639167678  TIP3      6184            0.0000000000
     35903      6321  TIP3      OH2            54.9932774475       14.5781117482        0.9254220589  TIP3      6185            0.0000000000
     35904      6321  TIP3      H1             55.1139654476       15.5183923574        1.1504761063  TIP3      6185            0.0000000000
     35905      6321  TIP3      H2             55.9097180746       14.3395051960        0.7191143656  TIP3      6185            0.0000000000
     35906      6322  TIP3      OH2            51.6116749810       16.9068807844        0.9941820739  TIP3      6186            0.0000000000
     35907      6322  TIP3      H1             52.0072987421       16.0204631142        0.9488459244  TIP3      6186            0.0000000000
     35908      6322  TIP3      H2             51.9678302513       17.1789386154        1.8510899368  TIP3      6186            0.0000000000
     35909      6323  TIP3      OH2            47.6099089769        2.8740303485        1.2921228610  TIP3      6187            0.0000000000
     35910      6323  TIP3      H1             46.6976720697        3.1289084106        1.4940414692  TIP3      6187            0.0000000000
     35911      6323  TIP3      H2             47.6140323384        1.9214565356        1.4568749867  TIP3      6187            0.0000000000
     35912      6324  TIP3      OH2            38.8005789848        3.9874032744        2.3190905654  TIP3      6188            0.0000000000
     35913      6324  TIP3      H1             39.3930542542        4.5351539705        1.7638878665  TIP3      6188            0.0000000000
     35914      6324  TIP3      H2             38.5261374459        4.6981702069        2.9234806542  TIP3      6188            0.0000000000
     35915      6325  TIP3      OH2            43.5739960149        6.3488293356        1.5464932091  TIP3      6189            0.0000000000
     35916      6325  TIP3      H1             43.2492567303        6.3593094586        0.6193996647  TIP3      6189            0.0000000000
     35917      6325  TIP3      H2             44.4783666159        6.6703710581        1.4137747852  TIP3      6189            0.0000000000
     35918      6326  TIP3      OH2            50.2726619380        4.5221003650        1.7072355318  TIP3      6190            0.0000000000
     35919      6326  TIP3      H1             49.4511695289        4.0487315064        1.9208971679  TIP3      6190            0.0000000000
     35920      6326  TIP3      H2             50.1705509461        5.3453193419        2.2006015944  TIP3      6190            0.0000000000
     35921      6327  TIP3      OH2            48.6431792962       12.6989237527        2.8608559343  TIP3      6191            0.0000000000
     35922      6327  TIP3      H1             48.3088338911       13.6059024133        2.8662636656  TIP3      6191            0.0000000000
     35923      6327  TIP3      H2             48.5118133933       12.4426814233        3.7994868898  TIP3      6191            0.0000000000
     35924      6328  TIP3      OH2            41.1697553440        8.8246196191        0.5013017016  TIP3      6192            0.0000000000
     35925      6328  TIP3      H1             41.1939926543        9.6468840281        1.0437756470  TIP3      6192            0.0000000000
     35926      6328  TIP3      H2             40.4914177544        8.3453658280        0.9943569511  TIP3      6192            0.0000000000
     35927      6329  TIP3      OH2            51.5522579498       12.1941807742        1.1398688886  TIP3      6193            0.0000000000
     35928      6329  TIP3      H1             51.5811886088       13.0080270471        1.6592778182  TIP3      6193            0.0000000000
     35929      6329  TIP3      H2             50.5934983203       12.0614621645        1.0479430807  TIP3      6193            0.0000000000
     35930      6330  TIP3      OH2            56.1671270114       17.0934745629        1.6630574336  TIP3      6194            0.0000000000
     35931      6330  TIP3      H1             56.7985404814       17.4850809633        1.0455780629  TIP3      6194            0.0000000000
     35932      6330  TIP3      H2             55.8651645742       17.8478384821        2.1912743182  TIP3      6194            0.0000000000
     35933      6331  TIP3      OH2            45.2867700679       13.2799187803        1.9347587481  TIP3      6195            0.0000000000
     35934      6331  TIP3      H1             45.7367980247       12.9183566760        2.7085478457  TIP3      6195            0.0000000000
     35935      6331  TIP3      H2             44.9822922376       14.1460798585        2.2722509961  TIP3      6195            0.0000000000
     35936      6332  TIP3      OH2            40.8286238260       10.8122644911        2.2779827725  TIP3      6196            0.0000000000
     35937      6332  TIP3      H1             40.4561899292       10.3147405552        3.0434849947  TIP3      6196            0.0000000000
     35938      6332  TIP3      H2             41.7727503013       10.9101772219        2.5272788736  TIP3      6196            0.0000000000
     35939      6333  TIP3      OH2            47.2583266131       15.8084763567        3.2622007675  TIP3      6197            0.0000000000
     35940      6333  TIP3      H1             46.3443942151       15.8960704528        2.9147303862  TIP3      6197            0.0000000000
     35941      6333  TIP3      H2             47.8153219726       16.2103337394        2.5549563340  TIP3      6197            0.0000000000
     35942      6334  TIP3      OH2            44.5296787006       15.7882420057        2.7813310102  TIP3      6198            0.0000000000
     35943      6334  TIP3      H1             44.1123402002       16.4251877635        2.1766499094  TIP3      6198            0.0000000000
     35944      6334  TIP3      H2             44.4122147552       16.2566561346        3.6298419462  TIP3      6198            0.0000000000
     35945      6335  TIP3      OH2            42.6583449095        3.0341243757        2.1941525348  TIP3      6199            0.0000000000
     35946      6335  TIP3      H1             42.9345690845        3.9016536971        2.5575075624  TIP3      6199            0.0000000000
     35947      6335  TIP3      H2             43.4273826945        2.5243540738        2.4983270436  TIP3      6199            0.0000000000
     35948      6336  TIP3      OH2            42.0492943558       13.9964615281        0.8985795898  TIP3      6200            0.0000000000
     35949      6336  TIP3      H1             42.4945166538       14.0630586111        1.7500497831  TIP3      6200            0.0000000000
     35950      6336  TIP3      H2             42.8205175675       13.8661734495        0.3143299542  TIP3      6200            0.0000000000
     35951      6337  TIP3      OH2            39.6435157993        6.0892587758        0.6638254113  TIP3      6201            0.0000000000
     35952      6337  TIP3      H1             40.2914703192        6.0855312229       -0.0592275897  TIP3      6201            0.0000000000
     35953      6337  TIP3      H2             38.8279707483        6.3929649788        0.2340497602  TIP3      6201            0.0000000000
     35954      6338  TIP3      OH2            44.6825907522        9.1054466438        1.8880499150  TIP3      6202            0.0000000000
     35955      6338  TIP3      H1             43.9560042022        8.4602857273        1.8443874407  TIP3      6202            0.0000000000
     35956      6338  TIP3      H2             45.3191419548        8.7263717753        1.2361144828  TIP3      6202            0.0000000000
     35957      6339  TIP3      OH2            46.0757344087        7.5452502727        0.3574003312  TIP3      6203            0.0000000000
     35958      6339  TIP3      H1             46.4736163902        7.6399635258       -0.5249286443  TIP3      6203            0.0000000000
     35959      6339  TIP3      H2             46.8685360515        7.3222457406        0.8992631644  TIP3      6203            0.0000000000
     35960      6340  TIP3      OH2            45.9170572518       18.6483000651        1.7255252172  TIP3      6204            0.0000000000
     35961      6340  TIP3      H1             46.7733504983       18.2459457704        1.4988365924  TIP3      6204            0.0000000000
     35962      6340  TIP3      H2             45.4565490878       18.6383349749        0.8632001544  TIP3      6204            0.0000000000
     35963      6341  TIP3      OH2            39.3281203276       13.2277536753        1.2356495597  TIP3      6205            0.0000000000
     35964      6341  TIP3      H1             40.2929554027       13.3111794675        1.1196503884  TIP3      6205            0.0000000000
     35965      6341  TIP3      H2             39.0936594336       12.8385746908        0.3745047685  TIP3      6205            0.0000000000
     35966      6342  TIP3      OH2            56.6720930395        7.8831913906        2.2119896827  TIP3      6206            0.0000000000
     35967      6342  TIP3      H1             56.0645742078        7.3542344074        1.6691457570  TIP3      6206            0.0000000000
     35968      6342  TIP3      H2             56.1035785488        8.6133744449        2.5187101947  TIP3      6206            0.0000000000
     35969      6343  TIP3      OH2            54.3915376336        5.9987139908        1.2160632862  TIP3      6207            0.0000000000
     35970      6343  TIP3      H1             54.6419795033        5.9993782721        0.2657610933  TIP3      6207            0.0000000000
     35971      6343  TIP3      H2             53.5111770288        5.6021088965        1.1965896091  TIP3      6207            0.0000000000
     35972      6344  TIP3      OH2            55.8257433513        2.2278302561        1.5437590575  TIP3      6208            0.0000000000
     35973      6344  TIP3      H1             56.4147215913        1.7743103202        0.9077226585  TIP3      6208            0.0000000000
     35974      6344  TIP3      H2             56.3467240873        3.0412033684        1.6987031301  TIP3      6208            0.0000000000
     35975      6345  TIP3      OH2            38.7838206362        1.1682386992        2.7861577038  TIP3      6209            0.0000000000
     35976      6345  TIP3      H1             39.7145577742        1.3180189682        3.0052548873  TIP3      6209            0.0000000000
     35977      6345  TIP3      H2             38.5252441985        2.0815215158        2.5756602271  TIP3      6209            0.0000000000
     35978      6346  TIP3      OH2            41.4626510867        0.8851725897        0.9032849761  TIP3      6210            0.0000000000
     35979      6346  TIP3      H1             41.6866263654        1.0931563492       -0.0357972918  TIP3      6210            0.0000000000
     35980      6346  TIP3      H2             41.6440574175        1.7583331820        1.3065167408  TIP3      6210            0.0000000000
     35981      6347  TIP3      OH2            48.6910867259       17.3170054527        1.4712707685  TIP3      6211            0.0000000000
     35982      6347  TIP3      H1             49.5821790028       17.7048018410        1.4209188325  TIP3      6211            0.0000000000
     35983      6347  TIP3      H2             48.7050389020       16.7546567078        0.6785895205  TIP3      6211            0.0000000000
     35984      6348  TIP3      OH2            41.2172134821       17.5672201317        0.7550609693  TIP3      6212            0.0000000000
     35985      6348  TIP3      H1             40.7155256703       18.0985243305        1.3972052004  TIP3      6212            0.0000000000
     35986      6348  TIP3      H2             41.4113088988       16.7803198121        1.2706743103  TIP3      6212            0.0000000000
     35987      6349  TIP3      OH2            57.9079051425        3.9299316621        2.2471949128  TIP3      6213            0.0000000000
     35988      6349  TIP3      H1             58.5602626251        4.4671666503        1.7531840929  TIP3      6213            0.0000000000
     35989      6349  TIP3      H2             57.5318706774        4.5926678661        2.8363429308  TIP3      6213            0.0000000000
     35990      6350  TIP3      OH2            62.2879855228        5.8383290647        1.6842183897  TIP3      6214            0.0000000000
     35991      6350  TIP3      H1             61.3595486604        6.0393282445        1.4412723908  TIP3      6214            0.0000000000
     35992      6350  TIP3      H2             62.6834508294        5.9824742260        0.8069290872  TIP3      6214            0.0000000000
     35993      6351  TIP3      OH2            59.2834404664        8.5572231808        0.7133753742  TIP3      6215            0.0000000000
     35994      6351  TIP3      H1             59.6477731540        9.3669819590        1.1513270021  TIP3      6215            0.0000000000
     35995      6351  TIP3      H2             58.4334415272        8.5007917224        1.2005358603  TIP3      6215            0.0000000000
     35996      6352  TIP3      OH2            63.4964472295       13.4940677646        2.1878820337  TIP3      6216            0.0000000000
     35997      6352  TIP3      H1             63.4540910237       13.2573818679        3.1226672398  TIP3      6216            0.0000000000
     35998      6352  TIP3      H2             63.4714939956       14.4800792625        2.2681571068  TIP3      6216            0.0000000000
     35999      6353  TIP3      OH2            59.7657179175       10.6992242274        2.2142626152  TIP3      6217            0.0000000000
     36000      6353  TIP3      H1             59.4838005609       10.2553853283        3.0365867182  TIP3      6217            0.0000000000
     36001      6353  TIP3      H2             60.5941780860       11.1172089970        2.5252622573  TIP3      6217            0.0000000000
     36002      6354  TIP3      OH2            63.0924758717       16.1274189391        2.6434416955  TIP3      6218            0.0000000000
     36003      6354  TIP3      H1             63.3135397317       16.8862541754        2.0571741597  TIP3      6218            0.0000000000
     36004      6354  TIP3      H2             63.3466897707       16.4960968478        3.5060459171  TIP3      6218            0.0000000000
     36005      6355  TIP3      OH2            61.8113879313        3.2384086335        2.5791481790  TIP3      6219            0.0000000000
     36006      6355  TIP3      H1             61.9079744437        4.2123901823        2.6368076695  TIP3      6219            0.0000000000
     36007      6355  TIP3      H2             62.7165032122        2.9810142124        2.8026600496  TIP3      6219            0.0000000000
     36008      6356  TIP3      OH2            60.8521184547       13.3579590930        1.3365405889  TIP3      6220            0.0000000000
     36009      6356  TIP3      H1             61.7278804096       13.4298297979        1.7586398458  TIP3      6220            0.0000000000
     36010      6356  TIP3      H2             61.0050841615       13.6502288088        0.4249952718  TIP3      6220            0.0000000000
     36011      6357  TIP3      OH2            59.7074325844        5.8930028512        0.8938646874  TIP3      6221            0.0000000000
     36012      6357  TIP3      H1             59.4096093539        6.8267159950        0.9767705015  TIP3      6221            0.0000000000
     36013      6357  TIP3      H2             59.7880100939        5.8480559440       -0.0805391823  TIP3      6221            0.0000000000
     36014      6358  TIP3      OH2            63.3603095592        9.1662415900        1.4887066682  TIP3      6222            0.0000000000
     36015      6358  TIP3      H1             63.5885649197        9.2919992861        2.4180430894  TIP3      6222            0.0000000000
     36016      6358  TIP3      H2             64.0761891619        8.5508941829        1.2170111700  TIP3      6222            0.0000000000
     36017      6359  TIP3      OH2            65.1183685135        7.3058628518       91.4036951604  TIP3      6223            0.0000000000
     36018      6359  TIP3      H1             64.8394239531        6.8684156352       90.5846681037  TIP3      6223            0.0000000000
     36019      6359  TIP3      H2             66.0881485869        7.3622627894       91.3168050953  TIP3      6223            0.0000000000
     36020      6360  TIP3      OH2            64.3572741164       18.0603455972        1.2620049814  TIP3      6224            0.0000000000
     36021      6360  TIP3      H1             65.2403474735       18.2911363739        1.5782333642  TIP3      6224            0.0000000000
     36022      6360  TIP3      H2             64.4894980668       18.1719511537        0.2890452242  TIP3      6224            0.0000000000
     36023      6361  TIP3      OH2            58.1628120794       12.8980588393        1.5137725819  TIP3      6225            0.0000000000
     36024      6361  TIP3      H1             59.1471916236       12.8530633632        1.5177090088  TIP3      6225            0.0000000000
     36025      6361  TIP3      H2             58.0191462797       12.7163877176        0.5702808065  TIP3      6225            0.0000000000
     36026      6362  TIP3      OH2            57.9194801680        0.7438052122        2.8025393181  TIP3      6226            0.0000000000
     36027      6362  TIP3      H1             58.8222676989        0.8172189836        2.4449775190  TIP3      6226            0.0000000000
     36028      6362  TIP3      H2             57.6482191359        1.6733728608        2.7232424957  TIP3      6226            0.0000000000
     36029      6363  TIP3      OH2            60.0434730498        1.3330291696        1.2316533346  TIP3      6227            0.0000000000
     36030      6363  TIP3      H1             60.1000131366        1.6281109107        0.2958983469  TIP3      6227            0.0000000000
     36031      6363  TIP3      H2             60.5194718212        2.0771695929        1.6610335308  TIP3      6227            0.0000000000
     36032      6364  TIP3      OH2            60.0214523862       17.8299683980        0.5439836227  TIP3      6228            0.0000000000
     36033      6364  TIP3      H1             59.4025901147       18.3900320450        1.0342471644  TIP3      6228            0.0000000000
     36034      6364  TIP3      H2             60.6258796908       17.5385514687        1.2431298818  TIP3      6228            0.0000000000
     36035      6365  TIP3      OH2            10.6493550859       25.3753828842        1.3612372842  TIP3      6229            0.0000000000
     36036      6365  TIP3      H1             11.3162068750       26.0604345054        1.5850725174  TIP3      6229            0.0000000000
     36037      6365  TIP3      H2             10.8971555120       25.2453175112        0.4311011871  TIP3      6229            0.0000000000
     36038      6366  TIP3      OH2            12.7570182800       27.1375139396        1.6159743677  TIP3      6230            0.0000000000
     36039      6366  TIP3      H1             12.6053075604       27.2345655584        2.5659453558  TIP3      6230            0.0000000000
     36040      6366  TIP3      H2             13.7075709206       26.9754808503        1.5193106948  TIP3      6230            0.0000000000
     36041      6367  TIP3      OH2            16.8070692651       19.3585542940        3.1511090856  TIP3      6231            0.0000000000
     36042      6367  TIP3      H1             15.9544332222       19.1437662064        2.7589633033  TIP3      6231            0.0000000000
     36043      6367  TIP3      H2             17.2566837894       19.8257562368        2.4151031132  TIP3      6231            0.0000000000
     36044      6368  TIP3      OH2            17.3098498527       33.4255685229        1.1539540776  TIP3      6232            0.0000000000
     36045      6368  TIP3      H1             17.4697981218       34.2896940583        1.5826379460  TIP3      6232            0.0000000000
     36046      6368  TIP3      H2             18.2080227684       33.1534374436        0.9222037839  TIP3      6232            0.0000000000
     36047      6369  TIP3      OH2            13.6994573384       35.6719788541        1.1968405967  TIP3      6233            0.0000000000
     36048      6369  TIP3      H1             14.2254536158       34.8773902288        1.0107827397  TIP3      6233            0.0000000000
     36049      6369  TIP3      H2             13.9700806534       35.8041002657        2.1210505503  TIP3      6233            0.0000000000
     36050      6370  TIP3      OH2            10.2088976257       21.7288289271        0.9659965176  TIP3      6234            0.0000000000
     36051      6370  TIP3      H1              9.6587549208       22.2625515403        1.5645798747  TIP3      6234            0.0000000000
     36052      6370  TIP3      H2             10.3974188423       20.9324579689        1.4827328191  TIP3      6234            0.0000000000
     36053      6371  TIP3      OH2             1.4244879939       22.2969894928        2.2048671469  TIP3      6235            0.0000000000
     36054      6371  TIP3      H1              2.2366454800       22.7669710751        2.4567228384  TIP3      6235            0.0000000000
     36055      6371  TIP3      H2              0.7105254339       22.7603988816        2.6640377470  TIP3      6235            0.0000000000
     36056      6372  TIP3      OH2             5.9975312263       25.2607069591        1.4795208784  TIP3      6236            0.0000000000
     36057      6372  TIP3      H1              5.7087683296       24.9078750253        0.6009288099  TIP3      6236            0.0000000000
     36058      6372  TIP3      H2              6.8792571370       25.5945882973        1.2143849452  TIP3      6236            0.0000000000
     36059      6373  TIP3      OH2            12.6924326982       23.2287890722        1.0834738846  TIP3      6237            0.0000000000
     36060      6373  TIP3      H1             11.8139895470       22.8148058014        1.1024392890  TIP3      6237            0.0000000000
     36061      6373  TIP3      H2             12.5376669998       24.0111357795        1.6251204621  TIP3      6237            0.0000000000
     36062      6374  TIP3      OH2            10.6021934845       31.2144225476        3.1755383390  TIP3      6238            0.0000000000
     36063      6374  TIP3      H1             10.5274388031       32.1760690320        3.0179275147  TIP3      6238            0.0000000000
     36064      6374  TIP3      H2             10.7368401682       31.1927799223        4.1434744986  TIP3      6238            0.0000000000
     36065      6375  TIP3      OH2             1.8708486895       27.4720306811        0.8746349135  TIP3      6239            0.0000000000
     36066      6375  TIP3      H1              2.5271338302       27.6764154407        1.5834701197  TIP3      6239            0.0000000000
     36067      6375  TIP3      H2              1.5731799960       28.3905441376        0.7884950569  TIP3      6239            0.0000000000
     36068      6376  TIP3      OH2            14.0323082377       31.0873403957        1.0170619134  TIP3      6240            0.0000000000
     36069      6376  TIP3      H1             14.1334928728       31.9932620216        1.3339776854  TIP3      6240            0.0000000000
     36070      6376  TIP3      H2             13.0661058110       30.9772691678        0.9401855834  TIP3      6240            0.0000000000
     36071      6377  TIP3      OH2            18.1789453733       35.7882275803        2.1213027791  TIP3      6241            0.0000000000
     36072      6377  TIP3      H1             18.3416975537       36.2181359001        1.2683342670  TIP3      6241            0.0000000000
     36073      6377  TIP3      H2             17.9057773337       36.5486448674        2.6811215998  TIP3      6241            0.0000000000
     36074      6378  TIP3      OH2             8.1523425574       31.9676110192        1.8293757644  TIP3      6242            0.0000000000
     36075      6378  TIP3      H1              8.7342707955       31.2791351286        2.2028424026  TIP3      6242            0.0000000000
     36076      6378  TIP3      H2              8.7455311200       32.7409361313        1.8723396760  TIP3      6242            0.0000000000
     36077      6379  TIP3      OH2             3.2812613061       28.9683475621        2.5436662818  TIP3      6243            0.0000000000
     36078      6379  TIP3      H1              2.8180436213       29.8243326124        2.3886355124  TIP3      6243            0.0000000000
     36079      6379  TIP3      H2              4.2017452419       29.2418736024        2.4429711599  TIP3      6243            0.0000000000
     36080      6380  TIP3      OH2             9.7800914825       33.8900703733        2.8727676064  TIP3      6244            0.0000000000
     36081      6380  TIP3      H1              8.9416277659       34.4087919338        2.8955783273  TIP3      6244            0.0000000000
     36082      6380  TIP3      H2             10.4086361254       34.6049795500        2.6501180108  TIP3      6244            0.0000000000
     36083      6381  TIP3      OH2             7.4593348512       35.1950112298        2.6540011555  TIP3      6245            0.0000000000
     36084      6381  TIP3      H1              7.2064612833       35.5040250364        1.7695847037  TIP3      6245            0.0000000000
     36085      6381  TIP3      H2              7.3463860365       36.0272711327        3.1598989981  TIP3      6245            0.0000000000
     36086      6382  TIP3      OH2             5.5790743448       21.3760505301        1.9849603340  TIP3      6246            0.0000000000
     36087      6382  TIP3      H1              4.9021237077       21.9258774378        2.3925288517  TIP3      6246            0.0000000000
     36088      6382  TIP3      H2              6.3755377360       21.7791802432        2.4002193213  TIP3      6246            0.0000000000
     36089      6383  TIP3      OH2             4.0963700251       32.8839981561        1.2040661317  TIP3      6247            0.0000000000
     36090      6383  TIP3      H1              4.0449464094       33.8452109172        1.3441961226  TIP3      6247            0.0000000000
     36091      6383  TIP3      H2              4.0103426226       32.8185351614        0.2305440964  TIP3      6247            0.0000000000
     36092      6384  TIP3      OH2             2.3539568565       24.9219952412        0.3589795333  TIP3      6248            0.0000000000
     36093      6384  TIP3      H1              2.3121902022       25.8868018317        0.5402663349  TIP3      6248            0.0000000000
     36094      6384  TIP3      H2              1.5468659093       24.5874576046        0.7727042410  TIP3      6248            0.0000000000
     36095      6385  TIP3      OH2             6.8964401394       28.4149633926        1.8286269027  TIP3      6249            0.0000000000
     36096      6385  TIP3      H1              6.2814873657       27.7454896458        2.1602044971  TIP3      6249            0.0000000000
     36097      6385  TIP3      H2              7.6162472655       27.8456945355        1.4788263729  TIP3      6249            0.0000000000
     36098      6386  TIP3      OH2             8.2452367567       26.3344134043        0.4412866099  TIP3      6250            0.0000000000
     36099      6386  TIP3      H1              8.3410619628       26.2616283201       -0.5315156931  TIP3      6250            0.0000000000
     36100      6386  TIP3      H2              9.0559951858       25.8527402428        0.7341150107  TIP3      6250            0.0000000000
     36101      6387  TIP3      OH2             8.1427235746       37.8581352978        1.8705379893  TIP3      6251            0.0000000000
     36102      6387  TIP3      H1              8.9848972775       37.4081733335        1.6825814822  TIP3      6251            0.0000000000
     36103      6387  TIP3      H2              7.7104483451       37.7661510108        0.9892866716  TIP3      6251            0.0000000000
     36104      6388  TIP3      OH2             2.0524231564       31.1228710948        1.5339153186  TIP3      6252            0.0000000000
     36105      6388  TIP3      H1              2.8677581404       31.6608949740        1.4610033053  TIP3      6252            0.0000000000
     36106      6388  TIP3      H2              1.7019024854       31.2477672166        0.6319204912  TIP3      6252            0.0000000000
     36107      6389  TIP3      OH2            18.7358061260       26.7408536305        1.9437467361  TIP3      6253            0.0000000000
     36108      6389  TIP3      H1             18.3847012412       26.7456791520        1.0294275758  TIP3      6253            0.0000000000
     36109      6389  TIP3      H2             18.3967764935       27.5877219308        2.2709852347  TIP3      6253            0.0000000000
     36110      6390  TIP3      OH2            16.5642503557       25.0832152287       91.4693712666  TIP3      6254            0.0000000000
     36111      6390  TIP3      H1             16.8894344465       25.3123462907       90.5716127706  TIP3      6254            0.0000000000
     36112      6390  TIP3      H2             16.8580982533       24.1650164389       91.5032328090  TIP3      6254            0.0000000000
     36113      6391  TIP3      OH2            18.1577866068       20.8179522360        1.1740146384  TIP3      6255            0.0000000000
     36114      6391  TIP3      H1             18.7913935588       20.6665230354        0.4485569727  TIP3      6255            0.0000000000
     36115      6391  TIP3      H2             18.6141159195       21.5710817533        1.6130338146  TIP3      6255            0.0000000000
     36116      6392  TIP3      OH2             1.3131256463       19.6166347538        2.1786294134  TIP3      6256            0.0000000000
     36117      6392  TIP3      H1              2.2007110533       19.6508187186        1.7786059509  TIP3      6256            0.0000000000
     36118      6392  TIP3      H2              1.2464272767       20.5486485698        2.4700401966  TIP3      6256            0.0000000000
     36119      6393  TIP3      OH2             3.8021005747       19.6956949313        0.8317293677  TIP3      6257            0.0000000000
     36120      6393  TIP3      H1              3.8883838126       20.1051460002       -0.0619419365  TIP3      6257            0.0000000000
     36121      6393  TIP3      H2              4.5498976300       20.1139475415        1.3101435749  TIP3      6257            0.0000000000
     36122      6394  TIP3      OH2            10.8547640069       36.2389716939        1.4659494808  TIP3      6258            0.0000000000
     36123      6394  TIP3      H1             11.8112829498       36.2327437522        1.2626214614  TIP3      6258            0.0000000000
     36124      6394  TIP3      H2             10.4708036986       36.4121163808        0.5788156163  TIP3      6258            0.0000000000
     36125      6395  TIP3      OH2             3.9301763730       35.9790141479        0.8550476314  TIP3      6259            0.0000000000
     36126      6395  TIP3      H1              3.2004438006       36.5667534694        0.6109664567  TIP3      6259            0.0000000000
     36127      6395  TIP3      H2              3.9946387684       36.1936854380        1.7986729683  TIP3      6259            0.0000000000
     36128      6396  TIP3      OH2            29.3803362918       25.8233215267        1.3573399722  TIP3      6260            0.0000000000
     36129      6396  TIP3      H1             30.2025356198       26.2979199217        1.6216310056  TIP3      6260            0.0000000000
     36130      6396  TIP3      H2             29.6341581182       25.5086803462        0.4739446367  TIP3      6260            0.0000000000
     36131      6397  TIP3      OH2            31.7118559799       27.2257968993        1.6261926705  TIP3      6261            0.0000000000
     36132      6397  TIP3      H1             31.3044364196       27.6127839027        2.4159219571  TIP3      6261            0.0000000000
     36133      6397  TIP3      H2             32.2032568730       27.9430632671        1.1961435535  TIP3      6261            0.0000000000
     36134      6398  TIP3      OH2            35.6868429241       19.4053612188        2.9620142038  TIP3      6262            0.0000000000
     36135      6398  TIP3      H1             34.7878160836       19.0573636352        2.8699024214  TIP3      6262            0.0000000000
     36136      6398  TIP3      H2             35.7623757650       19.9830287341        2.1782873946  TIP3      6262            0.0000000000
     36137      6399  TIP3      OH2            36.2574661462       33.6083203911        0.4874909419  TIP3      6263            0.0000000000
     36138      6399  TIP3      H1             36.2088601882       34.3320683265        1.1373006730  TIP3      6263            0.0000000000
     36139      6399  TIP3      H2             37.1658506026       33.3003402158        0.6241002311  TIP3      6263            0.0000000000
     36140      6400  TIP3      OH2            32.4027730434       35.3873495608        1.2443682303  TIP3      6264            0.0000000000
     36141      6400  TIP3      H1             33.0982441173       34.8372042900        0.8556523922  TIP3      6264            0.0000000000
     36142      6400  TIP3      H2             32.5684869672       35.2157865438        2.1900952467  TIP3      6264            0.0000000000
     36143      6401  TIP3      OH2            28.6675137531       22.0977691210        0.9536415017  TIP3      6265            0.0000000000
     36144      6401  TIP3      H1             28.2619404260       22.5797190749        1.6871560245  TIP3      6265            0.0000000000
     36145      6401  TIP3      H2             28.7158119168       21.1958094769        1.3095442822  TIP3      6265            0.0000000000
     36146      6402  TIP3      OH2            19.7769704121       22.7166689501        2.2417006373  TIP3      6266            0.0000000000
     36147      6402  TIP3      H1             20.6650598074       22.6265503656        1.8482936832  TIP3      6266            0.0000000000
     36148      6402  TIP3      H2             19.7445439403       23.6793005062        2.3641375994  TIP3      6266            0.0000000000
     36149      6403  TIP3      OH2            24.6465321863       25.3182672422        1.7498662901  TIP3      6267            0.0000000000
     36150      6403  TIP3      H1             24.1940882884       25.2385724040        0.8917343667  TIP3      6267            0.0000000000
     36151      6403  TIP3      H2             25.5522957156       25.5190120979        1.4526157595  TIP3      6267            0.0000000000
     36152      6404  TIP3      OH2            31.2945990824       23.0549211396        1.1224683161  TIP3      6268            0.0000000000
     36153      6404  TIP3      H1             30.3689976543       22.7387346356        1.1631944966  TIP3      6268            0.0000000000
     36154      6404  TIP3      H2             31.2962736726       23.8016402711        1.7353668241  TIP3      6268            0.0000000000
     36155      6405  TIP3      OH2            29.8704832368       31.4984194607        2.7504479373  TIP3      6269            0.0000000000
     36156      6405  TIP3      H1             29.4359443146       32.3494378550        2.8656774051  TIP3      6269            0.0000000000
     36157      6405  TIP3      H2             29.6969507922       31.1032262904        3.6232076350  TIP3      6269            0.0000000000
     36158      6406  TIP3      OH2            21.7942236525       28.0162369256        0.5922192272  TIP3      6270            0.0000000000
     36159      6406  TIP3      H1             22.1498586979       28.8523388697        0.9650841197  TIP3      6270            0.0000000000
     36160      6406  TIP3      H2             21.0546383917       27.8760706396        1.2027086629  TIP3      6270            0.0000000000
     36161      6407  TIP3      OH2            32.8075283077       31.0849774538        0.9951602162  TIP3      6271            0.0000000000
     36162      6407  TIP3      H1             32.8280273310       31.8319485262        1.6063294717  TIP3      6271            0.0000000000
     36163      6407  TIP3      H2             31.8540035428       30.8947660430        0.9712402831  TIP3      6271            0.0000000000
     36164      6408  TIP3      OH2            37.0876089352       35.7196294540        2.1838274549  TIP3      6272            0.0000000000
     36165      6408  TIP3      H1             37.4750515813       36.0744529851        1.3577236202  TIP3      6272            0.0000000000
     36166      6408  TIP3      H2             36.5732103679       36.4946754456        2.5002395567  TIP3      6272            0.0000000000
     36167      6409  TIP3      OH2            26.4309667294       32.1642472248        2.0751089109  TIP3      6273            0.0000000000
     36168      6409  TIP3      H1             26.8991745098       31.9816924770        2.8988848256  TIP3      6273            0.0000000000
     36169      6409  TIP3      H2             26.2747831353       33.1329651898        2.1583367633  TIP3      6273            0.0000000000
     36170      6410  TIP3      OH2            22.3018891914       30.1329554814        2.2613102149  TIP3      6274            0.0000000000
     36171      6410  TIP3      H1             21.7396092647       29.6711948572        2.9312366836  TIP3      6274            0.0000000000
     36172      6410  TIP3      H2             23.1938718109       29.9506569805        2.6416633083  TIP3      6274            0.0000000000
     36173      6411  TIP3      OH2            28.5715602369       34.3579771515        3.5722892915  TIP3      6275            0.0000000000
     36174      6411  TIP3      H1             27.6515484664       34.5254767185        3.2699333381  TIP3      6275            0.0000000000
     36175      6411  TIP3      H2             29.0772360465       34.7450618394        2.8340477825  TIP3      6275            0.0000000000
     36176      6412  TIP3      OH2            26.0488201593       34.8123863688        2.6630133501  TIP3      6276            0.0000000000
     36177      6412  TIP3      H1             25.8930508913       35.5833213291        2.0847927160  TIP3      6276            0.0000000000
     36178      6412  TIP3      H2             25.6755252990       35.1398839183        3.5003277049  TIP3      6276            0.0000000000
     36179      6413  TIP3      OH2            24.8905758030       20.8174688932        2.2424700950  TIP3      6277            0.0000000000
     36180      6413  TIP3      H1             25.0742251102       21.6651275241        2.7186683290  TIP3      6277            0.0000000000
     36181      6413  TIP3      H2             25.4930368744       20.1779913564        2.6694600076  TIP3      6277            0.0000000000
     36182      6414  TIP3      OH2            23.2600081233       32.6618888753        1.2551026085  TIP3      6278            0.0000000000
     36183      6414  TIP3      H1             23.3585825158       33.0492862591        2.1262770471  TIP3      6278            0.0000000000
     36184      6414  TIP3      H2             23.3168440572       31.7154739931        1.4645143847  TIP3      6278            0.0000000000
     36185      6415  TIP3      OH2            21.1721402288       25.2070317348        0.5007692827  TIP3      6279            0.0000000000
     36186      6415  TIP3      H1             21.6679101956       26.0027723597        0.7412596683  TIP3      6279            0.0000000000
     36187      6415  TIP3      H2             20.2690591965       25.5619399942        0.4872583758  TIP3      6279            0.0000000000
     36188      6416  TIP3      OH2            25.6821552048       28.4267317593        1.6559851568  TIP3      6280            0.0000000000
     36189      6416  TIP3      H1             25.0059259443       27.8225391418        2.0099319045  TIP3      6280            0.0000000000
     36190      6416  TIP3      H2             26.2775555942       27.7934810017        1.2002393140  TIP3      6280            0.0000000000
     36191      6417  TIP3      OH2            26.9178262921       26.3955462640        0.4996052803  TIP3      6281            0.0000000000
     36192      6417  TIP3      H1             27.0353234916       26.4532539084       -0.4605332065  TIP3      6281            0.0000000000
     36193      6417  TIP3      H2             27.8165713986       26.1197214609        0.7999114241  TIP3      6281            0.0000000000
     36194      6418  TIP3      OH2            27.1287632467       37.2988247856        1.9343536180  TIP3      6282            0.0000000000
     36195      6418  TIP3      H1             27.9597380327       36.7908127921        2.0023855332  TIP3      6282            0.0000000000
     36196      6418  TIP3      H2             27.1538984497       37.5062509046        0.9751684785  TIP3      6282            0.0000000000
     36197      6419  TIP3      OH2            20.3136223255       32.1416886563        1.0669252338  TIP3      6283            0.0000000000
     36198      6419  TIP3      H1             21.2784279649       32.0748941281        1.1479592734  TIP3      6283            0.0000000000
     36199      6419  TIP3      H2             20.2306757614       31.7983852082        0.1529586655  TIP3      6283            0.0000000000
     36200      6420  TIP3      OH2            37.6991349810       26.6938152271        1.8839298594  TIP3      6284            0.0000000000
     36201      6420  TIP3      H1             37.3885691999       26.8569247890        0.9656631295  TIP3      6284            0.0000000000
     36202      6420  TIP3      H2             37.2961699296       27.4583183483        2.3285193469  TIP3      6284            0.0000000000
     36203      6421  TIP3      OH2            35.1120627295       24.7236838956       91.3221388313  TIP3      6285            0.0000000000
     36204      6421  TIP3      H1             35.6767951423       24.9027304035       90.5456968060  TIP3      6285            0.0000000000
     36205      6421  TIP3      H2             35.2614040289       23.7920546733       91.4979986041  TIP3      6285            0.0000000000
     36206      6422  TIP3      OH2            36.5475922672       21.4116106541        1.1002970641  TIP3      6286            0.0000000000
     36207      6422  TIP3      H1             36.7905614707       21.7842786119        0.2262241647  TIP3      6286            0.0000000000
     36208      6422  TIP3      H2             37.3080803160       21.7224704206        1.6392020262  TIP3      6286            0.0000000000
     36209      6423  TIP3      OH2            20.8394533337       19.4493479706        2.3478140392  TIP3      6287            0.0000000000
     36210      6423  TIP3      H1             21.5222983441       19.9571327869        1.8507298688  TIP3      6287            0.0000000000
     36211      6423  TIP3      H2             20.6470797115       20.1327915588        3.0139252009  TIP3      6287            0.0000000000
     36212      6424  TIP3      OH2            22.4309450756       21.1100242175        0.9822444529  TIP3      6288            0.0000000000
     36213      6424  TIP3      H1             22.6151648070       20.8177513102        0.0652157810  TIP3      6288            0.0000000000
     36214      6424  TIP3      H2             23.2982764083       21.0113313864        1.4325901683  TIP3      6288            0.0000000000
     36215      6425  TIP3      OH2            29.7204929739       36.2036952641        1.5092409215  TIP3      6289            0.0000000000
     36216      6425  TIP3      H1             30.6311055204       36.5149076162        1.6819766405  TIP3      6289            0.0000000000
     36217      6425  TIP3      H2             29.8553386760       35.7530333078        0.6555909283  TIP3      6289            0.0000000000
     36218      6426  TIP3      OH2            22.4743438102       36.4578939728        0.6960043108  TIP3      6290            0.0000000000
     36219      6426  TIP3      H1             21.7382292043       37.0143471471        0.9664555286  TIP3      6290            0.0000000000
     36220      6426  TIP3      H2             22.9429046245       36.3493244772        1.5345211989  TIP3      6290            0.0000000000
     36221      6427  TIP3      OH2            48.4873899007       25.6293202617        1.2224122549  TIP3      6291            0.0000000000
     36222      6427  TIP3      H1             49.2843535420       26.1879341939        1.4099419097  TIP3      6291            0.0000000000
     36223      6427  TIP3      H2             48.8819982235       24.8751737018        0.7564130177  TIP3      6291            0.0000000000
     36224      6428  TIP3      OH2            50.5562579415       27.2165014866        1.6976946986  TIP3      6292            0.0000000000
     36225      6428  TIP3      H1             50.4796320641       27.4509881985        2.6378473664  TIP3      6292            0.0000000000
     36226      6428  TIP3      H2             51.2597190853       27.7814363122        1.3368821458  TIP3      6292            0.0000000000
     36227      6429  TIP3      OH2            54.6090712338       19.2269645715        3.0572927609  TIP3      6293            0.0000000000
     36228      6429  TIP3      H1             53.7494975765       19.1210128917        2.6309764819  TIP3      6293            0.0000000000
     36229      6429  TIP3      H2             55.1045883864       19.7611389484        2.4116165867  TIP3      6293            0.0000000000
     36230      6430  TIP3      OH2            55.3466737068       33.7069316403        1.1981984170  TIP3      6294            0.0000000000
     36231      6430  TIP3      H1             55.5918114997       34.5582482092        1.6122832560  TIP3      6294            0.0000000000
     36232      6430  TIP3      H2             56.1649451879       33.4211786770        0.7814461298  TIP3      6294            0.0000000000
     36233      6431  TIP3      OH2            51.6400454667       35.8479442516        1.2341512212  TIP3      6295            0.0000000000
     36234      6431  TIP3      H1             52.1278068323       35.0141676960        1.1213656465  TIP3      6295            0.0000000000
     36235      6431  TIP3      H2             51.6135054504       35.8584652695        2.2022900308  TIP3      6295            0.0000000000
     36236      6432  TIP3      OH2            47.7747483076       21.9028456395        1.3127668387  TIP3      6296            0.0000000000
     36237      6432  TIP3      H1             47.0029457520       22.1309581001        1.8580852339  TIP3      6296            0.0000000000
     36238      6432  TIP3      H2             47.9612055235       20.9880375853        1.5711735070  TIP3      6296            0.0000000000
     36239      6433  TIP3      OH2            38.7004198152       22.7755943801        2.3569412685  TIP3      6297            0.0000000000
     36240      6433  TIP3      H1             39.5038988361       22.4852453855        1.8902039741  TIP3      6297            0.0000000000
     36241      6433  TIP3      H2             38.9678741103       23.6766992580        2.6137660253  TIP3      6297            0.0000000000
     36242      6434  TIP3      OH2            43.5332670304       25.2865487267        1.6548486741  TIP3      6298            0.0000000000
     36243      6434  TIP3      H1             43.2049033455       25.0770052076        0.7586369781  TIP3      6298            0.0000000000
     36244      6434  TIP3      H2             44.4536602617       25.5361835654        1.4493165981  TIP3      6298            0.0000000000
     36245      6435  TIP3      OH2            50.1549339262       23.3144603157        1.0171064292  TIP3      6299            0.0000000000
     36246      6435  TIP3      H1             49.3193896602       22.8738622682        1.2887423710  TIP3      6299            0.0000000000
     36247      6435  TIP3      H2             50.3914338058       23.8066002454        1.8104890494  TIP3      6299            0.0000000000
     36248      6436  TIP3      OH2            48.5196453031       31.3852429597        2.9090174724  TIP3      6300            0.0000000000
     36249      6436  TIP3      H1             48.1794077555       32.3040195470        2.9238684849  TIP3      6300            0.0000000000
     36250      6436  TIP3      H2             48.4419691246       31.1283428586        3.8469525106  TIP3      6300            0.0000000000
     36251      6437  TIP3      OH2            40.0861497004       27.5270363906        0.4494169704  TIP3      6301            0.0000000000
     36252      6437  TIP3      H1             40.5936328674       28.1280772012        1.0526290737  TIP3      6301            0.0000000000
     36253      6437  TIP3      H2             39.2749847079       27.4518945480        0.9731845778  TIP3      6301            0.0000000000
     36254      6438  TIP3      OH2            51.7885277146       30.7686806915        1.0672496900  TIP3      6302            0.0000000000
     36255      6438  TIP3      H1             51.6797592634       31.2241148803        1.9138312891  TIP3      6302            0.0000000000
     36256      6438  TIP3      H2             50.8654506298       30.5889134938        0.8187538697  TIP3      6302            0.0000000000
     36257      6439  TIP3      OH2            56.2110594067       36.3067725318        1.7198190040  TIP3      6303            0.0000000000
     36258      6439  TIP3      H1             56.9172590578       36.9542718885        1.8920228114  TIP3      6303            0.0000000000
     36259      6439  TIP3      H2             55.5253060350       36.8644346544        1.3178679452  TIP3      6303            0.0000000000
     36260      6440  TIP3      OH2            45.3663207920       32.1770401146        2.1252532301  TIP3      6304            0.0000000000
     36261      6440  TIP3      H1             45.6271008747       31.8771408366        3.0039626319  TIP3      6304            0.0000000000
     36262      6440  TIP3      H2             45.2711861577       33.1480461264        2.2387732900  TIP3      6304            0.0000000000
     36263      6441  TIP3      OH2            40.8650388919       29.1677435835        2.2951043867  TIP3      6305            0.0000000000
     36264      6441  TIP3      H1             40.3767542273       29.4143139148        3.0949717641  TIP3      6305            0.0000000000
     36265      6441  TIP3      H2             41.7678003787       29.4336233950        2.5386034583  TIP3      6305            0.0000000000
     36266      6442  TIP3      OH2            47.5075624325       33.9296505027        3.2641053147  TIP3      6306            0.0000000000
     36267      6442  TIP3      H1             46.5879824930       34.2082611019        3.1151171530  TIP3      6306            0.0000000000
     36268      6442  TIP3      H2             47.9668986168       34.4928398229        2.6089955839  TIP3      6306            0.0000000000
     36269      6443  TIP3      OH2            44.9548073279       34.8668341401        2.6590091629  TIP3      6307            0.0000000000
     36270      6443  TIP3      H1             45.0663649150       35.7047551170        2.1626094698  TIP3      6307            0.0000000000
     36271      6443  TIP3      H2             44.7076355763       35.2297502754        3.5303230610  TIP3      6307            0.0000000000
     36272      6444  TIP3      OH2            43.7651828514       20.8361340963        2.2974648428  TIP3      6308            0.0000000000
     36273      6444  TIP3      H1             43.5107003241       21.6237079380        2.8183552550  TIP3      6308            0.0000000000
     36274      6444  TIP3      H2             44.7046953505       20.7682836413        2.5265710294  TIP3      6308            0.0000000000
     36275      6445  TIP3      OH2            42.1251023227       32.5533136176        1.1645604309  TIP3      6309            0.0000000000
     36276      6445  TIP3      H1             42.3172758533       33.2101161622        1.8518576030  TIP3      6309            0.0000000000
     36277      6445  TIP3      H2             42.6056448367       31.7734306732        1.4873791933  TIP3      6309            0.0000000000
     36278      6446  TIP3      OH2            39.7240860845       24.8047431646        0.3180891697  TIP3      6310            0.0000000000
     36279      6446  TIP3      H1             39.8378398522       25.6984148779        0.6890348976  TIP3      6310            0.0000000000
     36280      6446  TIP3      H2             38.7864643289       24.8331125338        0.0869388292  TIP3      6310            0.0000000000
     36281      6447  TIP3      OH2            44.4419489745       28.1859817600        1.8802553318  TIP3      6311            0.0000000000
     36282      6447  TIP3      H1             44.1916264449       27.5757448199        2.5935953976  TIP3      6311            0.0000000000
     36283      6447  TIP3      H2             45.1609106401       27.6962725189        1.4187256547  TIP3      6311            0.0000000000
     36284      6448  TIP3      OH2            45.9442533908       26.3970624825        0.6314425375  TIP3      6312            0.0000000000
     36285      6448  TIP3      H1             45.9218939710       26.2362806986       -0.3294449053  TIP3      6312            0.0000000000
     36286      6448  TIP3      H2             46.8630007761       26.1067466820        0.8456320113  TIP3      6312            0.0000000000
     36287      6449  TIP3      OH2            45.8403562964       37.2326159425        1.7183486100  TIP3      6313            0.0000000000
     36288      6449  TIP3      H1             46.7416659341       37.2227912944        1.3569959639  TIP3      6313            0.0000000000
     36289      6449  TIP3      H2             45.2964593638       37.2220571256        0.8954150698  TIP3      6313            0.0000000000
     36290      6450  TIP3      OH2            39.4248440298       31.9218816518        1.3865111678  TIP3      6314            0.0000000000
     36291      6450  TIP3      H1             40.3837582207       32.0483890696        1.2230006305  TIP3      6314            0.0000000000
     36292      6450  TIP3      H2             39.1475765978       31.6581638276        0.4891905474  TIP3      6314            0.0000000000
     36293      6451  TIP3      OH2            56.7115781434       26.7827648872        1.8201734192  TIP3      6315            0.0000000000
     36294      6451  TIP3      H1             56.1985265505       26.8151573231        0.9882902087  TIP3      6315            0.0000000000
     36295      6451  TIP3      H2             56.3995175223       27.6017661727        2.2487683008  TIP3      6315            0.0000000000
     36296      6452  TIP3      OH2            54.6885476393       24.7654393387        0.7537830317  TIP3      6316            0.0000000000
     36297      6452  TIP3      H1             54.7968988643       25.1772609306       -0.1410757636  TIP3      6316            0.0000000000
     36298      6452  TIP3      H2             54.7828962502       23.8352162770        0.5287622091  TIP3      6316            0.0000000000
     36299      6453  TIP3      OH2            55.7347144848       21.1104824973        1.0643221002  TIP3      6317            0.0000000000
     36300      6453  TIP3      H1             56.0119050200       21.3678242766        0.1614930943  TIP3      6317            0.0000000000
     36301      6453  TIP3      H2             56.3061368000       21.6982985699        1.6000876320  TIP3      6317            0.0000000000
     36302      6454  TIP3      OH2            39.7411203461       19.1994125128        2.4411753535  TIP3      6318            0.0000000000
     36303      6454  TIP3      H1             40.4313839141       19.8470792506        2.1736358875  TIP3      6318            0.0000000000
     36304      6454  TIP3      H2             39.3584989857       19.7213483036        3.1648308261  TIP3      6318            0.0000000000
     36305      6455  TIP3      OH2            41.1331690245       21.2020181321        1.2000722055  TIP3      6319            0.0000000000
     36306      6455  TIP3      H1             41.3245742439       21.0460028987        0.2520345076  TIP3      6319            0.0000000000
     36307      6455  TIP3      H2             42.0063501279       21.0666348756        1.6125491779  TIP3      6319            0.0000000000
     36308      6456  TIP3      OH2            48.6947100381       35.8937692449        1.4838666858  TIP3      6320            0.0000000000
     36309      6456  TIP3      H1             49.6614321781       35.9857077846        1.4266083252  TIP3      6320            0.0000000000
     36310      6456  TIP3      H2             48.4238017777       36.0903729042        0.5631819132  TIP3      6320            0.0000000000
     36311      6457  TIP3      OH2            41.3453536607       36.4957370689        0.6396012297  TIP3      6321            0.0000000000
     36312      6457  TIP3      H1             40.6467388060       36.9951378048        1.1060261091  TIP3      6321            0.0000000000
     36313      6457  TIP3      H2             41.9701636872       36.3583503405        1.3535053858  TIP3      6321            0.0000000000
     36314      6458  TIP3      OH2            57.4038451660       22.9276178154        2.3226711383  TIP3      6322            0.0000000000
     36315      6458  TIP3      H1             58.2887060594       22.9569322029        1.8917483430  TIP3      6322            0.0000000000
     36316      6458  TIP3      H2             57.2439110964       23.8732119604        2.4628565775  TIP3      6322            0.0000000000
     36317      6459  TIP3      OH2            62.3915109482       24.8751360159        1.5344065482  TIP3      6323            0.0000000000
     36318      6459  TIP3      H1             61.9530883706       24.9812015410        0.6639773011  TIP3      6323            0.0000000000
     36319      6459  TIP3      H2             63.2587646901       25.2739329570        1.3650264507  TIP3      6323            0.0000000000
     36320      6460  TIP3      OH2            59.3499101647       27.2056270604        0.6246969050  TIP3      6324            0.0000000000
     36321      6460  TIP3      H1             59.7177036620       27.9858183653        1.1057148866  TIP3      6324            0.0000000000
     36322      6460  TIP3      H2             58.4721824818       27.1733255604        1.0640630657  TIP3      6324            0.0000000000
     36323      6461  TIP3      OH2            63.3225710507       32.2987992006        1.9504163890  TIP3      6325            0.0000000000
     36324      6461  TIP3      H1             63.4403654868       31.9631405751        2.8502991464  TIP3      6325            0.0000000000
     36325      6461  TIP3      H2             63.3925005024       33.2618303348        2.1287637672  TIP3      6325            0.0000000000
     36326      6462  TIP3      OH2            59.6047995762       29.5626095324        2.0283952978  TIP3      6326            0.0000000000
     36327      6462  TIP3      H1             59.1173944104       29.5408728900        2.8653588302  TIP3      6326            0.0000000000
     36328      6462  TIP3      H2             60.4875564648       29.8423473243        2.3559594839  TIP3      6326            0.0000000000
     36329      6463  TIP3      OH2            63.2528879963       35.0221725452        2.5730748083  TIP3      6327            0.0000000000
     36330      6463  TIP3      H1             63.3813777980       35.9156384321        2.1759202848  TIP3      6327            0.0000000000
     36331      6463  TIP3      H2             63.6222606748       35.1365290400        3.4687516553  TIP3      6327            0.0000000000
     36332      6464  TIP3      OH2            62.1216668856       22.0829655825        2.2003976187  TIP3      6328            0.0000000000
     36333      6464  TIP3      H1             62.1038625101       23.0551342851        2.3262120223  TIP3      6328            0.0000000000
     36334      6464  TIP3      H2             62.8632108620       21.8380473440        2.7661373902  TIP3      6328            0.0000000000
     36335      6465  TIP3      OH2            60.6768451089       32.5310884251        1.5614607004  TIP3      6329            0.0000000000
     36336      6465  TIP3      H1             61.6175334248       32.4074829307        1.8045210074  TIP3      6329            0.0000000000
     36337      6465  TIP3      H2             60.7459163941       32.6941128627        0.6021435771  TIP3      6329            0.0000000000
     36338      6466  TIP3      OH2            59.1053971907       24.4737681702        0.7204285921  TIP3      6330            0.0000000000
     36339      6466  TIP3      H1             59.4540365275       25.3878892621        0.7844701561  TIP3      6330            0.0000000000
     36340      6466  TIP3      H2             58.1645118052       24.6229555047        0.5734025854  TIP3      6330            0.0000000000
     36341      6467  TIP3      OH2            63.5678267998       27.9270937669        1.6018445224  TIP3      6331            0.0000000000
     36342      6467  TIP3      H1             63.5260692774       27.6492595236        2.5318142704  TIP3      6331            0.0000000000
     36343      6467  TIP3      H2             64.2665312404       27.3588329260        1.2227044484  TIP3      6331            0.0000000000
     36344      6468  TIP3      OH2            64.9475270332       25.7787590717        0.4698807648  TIP3      6332            0.0000000000
     36345      6468  TIP3      H1             64.6340659280       25.1875692350       -0.2389704276  TIP3      6332            0.0000000000
     36346      6468  TIP3      H2             65.8832072913       25.8892891778        0.2600509389  TIP3      6332            0.0000000000
     36347      6469  TIP3      OH2            64.2038971785       37.3831654154        1.4455791616  TIP3      6333            0.0000000000
     36348      6469  TIP3      H1             65.1403617215       37.1591776282        1.4377443536  TIP3      6333            0.0000000000
     36349      6469  TIP3      H2             64.0437094186       37.5065775165        0.4901035215  TIP3      6333            0.0000000000
     36350      6470  TIP3      OH2            58.0212436397       31.9472561776        1.4980438035  TIP3      6334            0.0000000000
     36351      6470  TIP3      H1             59.0047638489       31.9628613616        1.5779770447  TIP3      6334            0.0000000000
     36352      6470  TIP3      H2             57.9287896571       31.7413267475        0.5490621215  TIP3      6334            0.0000000000
     36353      6471  TIP3      OH2            58.1601771934       19.5136870994        2.1990437390  TIP3      6335            0.0000000000
     36354      6471  TIP3      H1             58.9393985281       19.9732247816        1.7994737642  TIP3      6335            0.0000000000
     36355      6471  TIP3      H2             58.2244733779       19.9222716392        3.0732379489  TIP3      6335            0.0000000000
     36356      6472  TIP3      OH2            59.9410571136       20.9222616938        0.8900264248  TIP3      6336            0.0000000000
     36357      6472  TIP3      H1             60.1731449973       20.8688889963       -0.0586175958  TIP3      6336            0.0000000000
     36358      6472  TIP3      H2             60.7795736639       21.1850157258        1.3311874589  TIP3      6336            0.0000000000
     36359      6473  TIP3      OH2            60.1595855754       36.8171934686        0.5716879087  TIP3      6337            0.0000000000
     36360      6473  TIP3      H1             59.3864799989       37.2274120481        0.9899137660  TIP3      6337            0.0000000000
     36361      6473  TIP3      H2             60.6192655521       36.4043742287        1.3072139818  TIP3      6337            0.0000000000
     36362      6474  TIP3      OH2            10.6832428103       44.5485257959        1.1429201391  TIP3      6338            0.0000000000
     36363      6474  TIP3      H1             11.4353697638       45.1709299600        1.2645373082  TIP3      6338            0.0000000000
     36364      6474  TIP3      H2             10.8401033565       44.2283088633        0.2445398450  TIP3      6338            0.0000000000
     36365      6475  TIP3      OH2            12.7624036122       46.1024433449        1.6605741496  TIP3      6339            0.0000000000
     36366      6475  TIP3      H1             12.6707132452       46.1601679464        2.6265236467  TIP3      6339            0.0000000000
     36367      6475  TIP3      H2             13.6776336099       46.3297785917        1.4422730547  TIP3      6339            0.0000000000
     36368      6476  TIP3      OH2            17.0938537336       38.1190602873        2.9930243908  TIP3      6340            0.0000000000
     36369      6476  TIP3      H1             16.1976522729       38.3333130114        2.7077944046  TIP3      6340            0.0000000000
     36370      6476  TIP3      H2             17.6348031589       38.6498285945        2.3729569682  TIP3      6340            0.0000000000
     36371      6477  TIP3      OH2            17.6743506875       52.4775321197        1.3552572519  TIP3      6341            0.0000000000
     36372      6477  TIP3      H1             17.7234008425       53.4449669785        1.4075770495  TIP3      6341            0.0000000000
     36373      6477  TIP3      H2             18.3599190860       52.2868482447        0.7013314835  TIP3      6341            0.0000000000
     36374      6478  TIP3      OH2            13.9658940050       54.7271887650        1.2006543293  TIP3      6342            0.0000000000
     36375      6478  TIP3      H1             14.1390115376       53.7909802029        1.0170573822  TIP3      6342            0.0000000000
     36376      6478  TIP3      H2             14.4551928582       54.7868130045        2.0358424744  TIP3      6342            0.0000000000
     36377      6479  TIP3      OH2             9.8485306861       40.7075055716        0.9716747208  TIP3      6343            0.0000000000
     36378      6479  TIP3      H1              9.3393556325       40.9979562989        1.7424060750  TIP3      6343            0.0000000000
     36379      6479  TIP3      H2             10.3067414481       39.9168120130        1.2959775641  TIP3      6343            0.0000000000
     36380      6480  TIP3      OH2             1.3231936021       41.3408377155        2.0439831106  TIP3      6344            0.0000000000
     36381      6480  TIP3      H1              1.7992445907       41.8477935547        1.3709907139  TIP3      6344            0.0000000000
     36382      6480  TIP3      H2              0.4416562188       41.2595210367        1.6517953621  TIP3      6344            0.0000000000
     36383      6481  TIP3      OH2             5.8048869489       44.4509875665        1.3123087869  TIP3      6345            0.0000000000
     36384      6481  TIP3      H1              5.5985105519       44.2381386579        0.3712295275  TIP3      6345            0.0000000000
     36385      6481  TIP3      H2              6.7702014158       44.5804270850        1.2599261069  TIP3      6345            0.0000000000
     36386      6482  TIP3      OH2            12.5952289151       41.8723496622        0.9072335005  TIP3      6346            0.0000000000
     36387      6482  TIP3      H1             11.6680647586       41.9267568891        1.1957127664  TIP3      6346            0.0000000000
     36388      6482  TIP3      H2             12.9443057542       42.7440218172        1.1224711981  TIP3      6346            0.0000000000
     36389      6483  TIP3      OH2            11.0728689466       50.2842358785        2.8848410494  TIP3      6347            0.0000000000
     36390      6483  TIP3      H1             10.3868048411       50.9575434335        2.7356564208  TIP3      6347            0.0000000000
     36391      6483  TIP3      H2             10.9297527413       50.0634334503        3.8236909863  TIP3      6347            0.0000000000
     36392      6484  TIP3      OH2             1.1434687970       45.9827021246        1.8794028476  TIP3      6348            0.0000000000
     36393      6484  TIP3      H1              1.8764341238       46.6371516214        1.8860621718  TIP3      6348            0.0000000000
     36394      6484  TIP3      H2              0.3585640048       46.5423114698        2.0088051488  TIP3      6348            0.0000000000
     36395      6485  TIP3      OH2            14.0474481417       49.7814029192        1.2798908865  TIP3      6349            0.0000000000
     36396      6485  TIP3      H1             13.8376967023       50.2612065890        2.0915865209  TIP3      6349            0.0000000000
     36397      6485  TIP3      H2             13.1458769388       49.5835145034        0.9747651086  TIP3      6349            0.0000000000
     36398      6486  TIP3      OH2            18.5004500912       55.1985842971        1.4687334229  TIP3      6350            0.0000000000
     36399      6486  TIP3      H1             19.3777149738       55.4029322620        1.8222467060  TIP3      6350            0.0000000000
     36400      6486  TIP3      H2             17.9200759054       55.6521574444        2.1073551128  TIP3      6350            0.0000000000
     36401      6487  TIP3      OH2             8.2966342927       51.2209167573        2.2024258725  TIP3      6351            0.0000000000
     36402      6487  TIP3      H1              7.7589719059       50.6403770558        2.7761173444  TIP3      6351            0.0000000000
     36403      6487  TIP3      H2              8.0146156832       52.1213850044        2.4767320621  TIP3      6351            0.0000000000
     36404      6488  TIP3      OH2             3.1831050417       48.0522334349        2.2400798679  TIP3      6352            0.0000000000
     36405      6488  TIP3      H1              2.6406379831       48.6112269274        2.8427542825  TIP3      6352            0.0000000000
     36406      6488  TIP3      H2              4.0625570364       48.4602519376        2.3177942438  TIP3      6352            0.0000000000
     36407      6489  TIP3      OH2             9.8884060584       53.7109649171        3.5666230360  TIP3      6353            0.0000000000
     36408      6489  TIP3      H1              8.9407581403       53.7938594804        3.3221423385  TIP3      6353            0.0000000000
     36409      6489  TIP3      H2             10.3405783260       53.9913543712        2.7374207127  TIP3      6353            0.0000000000
     36410      6490  TIP3      OH2             7.3075822279       53.7351039466        2.8621782950  TIP3      6354            0.0000000000
     36411      6490  TIP3      H1              7.2631029743       54.5041370975        2.2632378285  TIP3      6354            0.0000000000
     36412      6490  TIP3      H2              6.8500689253       54.0712705829        3.6549603457  TIP3      6354            0.0000000000
     36413      6491  TIP3      OH2             5.3877722945       40.6806424294        1.7431267580  TIP3      6355            0.0000000000
     36414      6491  TIP3      H1              5.0944111356       41.5916394224        1.8935194026  TIP3      6355            0.0000000000
     36415      6491  TIP3      H2              6.0801705103       40.6458090782        2.4420417014  TIP3      6355            0.0000000000
     36416      6492  TIP3      OH2             4.4538080125       51.2958982620        0.9964394049  TIP3      6356            0.0000000000
     36417      6492  TIP3      H1              4.8913137170       52.1003883328        1.3020733672  TIP3      6356            0.0000000000
     36418      6492  TIP3      H2              4.4890289524       51.3983260528        0.0259064661  TIP3      6356            0.0000000000
     36419      6493  TIP3      OH2             1.9094006733       43.5323140701        0.2547008159  TIP3      6357            0.0000000000
     36420      6493  TIP3      H1              2.1441078034       44.3698716952        0.6850553431  TIP3      6357            0.0000000000
     36421      6493  TIP3      H2              0.9469068164       43.6328796526        0.2598809413  TIP3      6357            0.0000000000
     36422      6494  TIP3      OH2             6.6171915634       47.0089357649        1.7546674369  TIP3      6358            0.0000000000
     36423      6494  TIP3      H1              6.0021132030       46.2503603936        1.6768273845  TIP3      6358            0.0000000000
     36424      6494  TIP3      H2              7.4119632936       46.6565585446        1.2847901495  TIP3      6358            0.0000000000
     36425      6495  TIP3      OH2             8.3259781143       45.5520825890        0.4217796851  TIP3      6359            0.0000000000
     36426      6495  TIP3      H1              8.5723935207       45.5984895363       -0.5215153526  TIP3      6359            0.0000000000
     36427      6495  TIP3      H2              9.1329353748       45.1265934591        0.8001791205  TIP3      6359            0.0000000000
     36428      6496  TIP3      OH2             8.2268315835       56.2908768767        2.0029518366  TIP3      6360            0.0000000000
     36429      6496  TIP3      H1              9.1779867675       56.1428311207        2.0765352202  TIP3      6360            0.0000000000
     36430      6496  TIP3      H2              8.0901569176       56.3252259789        1.0253190901  TIP3      6360            0.0000000000
     36431      6497  TIP3      OH2             1.8130624310       50.6872181579        1.1579472559  TIP3      6361            0.0000000000
     36432      6497  TIP3      H1              2.7588090705       50.9215219200        1.0715782416  TIP3      6361            0.0000000000
     36433      6497  TIP3      H2              1.6306168718       50.3575635268        0.2628076295  TIP3      6361            0.0000000000
     36434      6498  TIP3      OH2            18.7273284488       45.4519597768        1.7251302008  TIP3      6362            0.0000000000
     36435      6498  TIP3      H1             18.3519227475       45.4323150965        0.8196139258  TIP3      6362            0.0000000000
     36436      6498  TIP3      H2             18.3457198038       46.2914458501        2.0377257472  TIP3      6362            0.0000000000
     36437      6499  TIP3      OH2            16.4952577269       43.5013812748       91.4442824051  TIP3      6363            0.0000000000
     36438      6499  TIP3      H1             16.7977927382       43.8752542640       90.5811100719  TIP3      6363            0.0000000000
     36439      6499  TIP3      H2             16.6201348134       42.5601022322       91.3059991530  TIP3      6363            0.0000000000
     36440      6500  TIP3      OH2            17.9607619129       39.8925169282        1.0268573188  TIP3      6364            0.0000000000
     36441      6500  TIP3      H1             18.1795432364       40.0752147251        0.0844542319  TIP3      6364            0.0000000000
     36442      6500  TIP3      H2             18.5881730409       40.5217387385        1.4469516949  TIP3      6364            0.0000000000
     36443      6501  TIP3      OH2             2.1543164527       37.9960640739        2.5835541170  TIP3      6365            0.0000000000
     36444      6501  TIP3      H1              2.7745212179       38.3882997807        1.9259269145  TIP3      6365            0.0000000000
     36445      6501  TIP3      H2              1.9476454059       38.7641253270        3.1326008460  TIP3      6365            0.0000000000
     36446      6502  TIP3      OH2             3.5989324508       39.0753425938        0.6500045953  TIP3      6366            0.0000000000
     36447      6502  TIP3      H1              3.7061525001       39.3579056020       -0.2861746474  TIP3      6366            0.0000000000
     36448      6502  TIP3      H2              4.2817626571       39.6468726646        1.0796758627  TIP3      6366            0.0000000000
     36449      6503  TIP3      OH2            11.0042066237       54.9472130378        1.4067540985  TIP3      6367            0.0000000000
     36450      6503  TIP3      H1             11.9649427486       55.0826660737        1.4770693234  TIP3      6367            0.0000000000
     36451      6503  TIP3      H2             10.8689795576       55.1538243099        0.4591877102  TIP3      6367            0.0000000000
     36452      6504  TIP3      OH2             4.1610152800       55.3384238039        0.8896643812  TIP3      6368            0.0000000000
     36453      6504  TIP3      H1              3.2706438526       55.6363971171        1.1500971014  TIP3      6368            0.0000000000
     36454      6504  TIP3      H2              4.5753887713       55.2531203370        1.7636729287  TIP3      6368            0.0000000000
     36455      6505  TIP3      OH2            29.5551737544       44.3857249003        1.5045003581  TIP3      6369            0.0000000000
     36456      6505  TIP3      H1             30.2480584799       45.0537787779        1.6920871965  TIP3      6369            0.0000000000
     36457      6505  TIP3      H2             29.8945295653       44.0280687698        0.6700717255  TIP3      6369            0.0000000000
     36458      6506  TIP3      OH2            31.5936078989       46.2020552618        1.6590301022  TIP3      6370            0.0000000000
     36459      6506  TIP3      H1             31.7873593933       46.1242471383        2.6031144611  TIP3      6370            0.0000000000
     36460      6506  TIP3      H2             32.4140447178       46.5342214669        1.2611709770  TIP3      6370            0.0000000000
     36461      6507  TIP3      OH2            35.7151233754       37.8460519310        2.9706803775  TIP3      6371            0.0000000000
     36462      6507  TIP3      H1             34.9543858136       37.7548464495        2.3799238927  TIP3      6371            0.0000000000
     36463      6507  TIP3      H2             36.2459479047       38.4853821774        2.4403472722  TIP3      6371            0.0000000000
     36464      6508  TIP3      OH2            36.1160222329       52.3354710780        1.8469842981  TIP3      6372            0.0000000000
     36465      6508  TIP3      H1             36.3403799766       53.2764845923        1.6649421349  TIP3      6372            0.0000000000
     36466      6508  TIP3      H2             36.8159668588       51.9274407991        1.3039462087  TIP3      6372            0.0000000000
     36467      6509  TIP3      OH2            32.7736807015       54.8256735741        1.1290391560  TIP3      6373            0.0000000000
     36468      6509  TIP3      H1             33.0007061560       53.8816855932        1.0882971084  TIP3      6373            0.0000000000
     36469      6509  TIP3      H2             33.0570686390       55.0429648433        2.0293124844  TIP3      6373            0.0000000000
     36470      6510  TIP3      OH2            29.0825864771       40.7992357499        0.9492246017  TIP3      6374            0.0000000000
     36471      6510  TIP3      H1             28.8152266420       41.3330979071        1.7101319354  TIP3      6374            0.0000000000
     36472      6510  TIP3      H2             29.4985714233       40.0421731962        1.3807234721  TIP3      6374            0.0000000000
     36473      6511  TIP3      OH2            19.6964075604       41.5929070300        2.0890931592  TIP3      6375            0.0000000000
     36474      6511  TIP3      H1             20.3385303419       41.8224880212        1.3946858215  TIP3      6375            0.0000000000
     36475      6511  TIP3      H2             19.7676784822       42.4235244490        2.5841104954  TIP3      6375            0.0000000000
     36476      6512  TIP3      OH2            24.5957652164       44.2024993048        1.7650311383  TIP3      6376            0.0000000000
     36477      6512  TIP3      H1             24.2664911224       44.1038884052        0.8525589086  TIP3      6376            0.0000000000
     36478      6512  TIP3      H2             25.5469012157       44.2930466986        1.6187028054  TIP3      6376            0.0000000000
     36479      6513  TIP3      OH2            31.6694517423       41.8780408090        1.5669555798  TIP3      6377            0.0000000000
     36480      6513  TIP3      H1             30.8577118234       41.6421730575        1.1091192767  TIP3      6377            0.0000000000
     36481      6513  TIP3      H2             31.9600060030       42.6204983130        1.0114092793  TIP3      6377            0.0000000000
     36482      6514  TIP3      OH2            29.8020944706       50.2519585243        2.7637684734  TIP3      6378            0.0000000000
     36483      6514  TIP3      H1             29.5767162217       51.1868419564        2.8995505463  TIP3      6378            0.0000000000
     36484      6514  TIP3      H2             29.5371398783       49.8558126968        3.6113976443  TIP3      6378            0.0000000000
     36485      6515  TIP3      OH2            21.3321442572       46.7369556950        0.6359421778  TIP3      6379            0.0000000000
     36486      6515  TIP3      H1             21.7649557787       47.4868883785        1.0965151145  TIP3      6379            0.0000000000
     36487      6515  TIP3      H2             20.6019755230       46.5176885727        1.2361748723  TIP3      6379            0.0000000000
     36488      6516  TIP3      OH2            32.8908187180       49.5873584612        1.0085954648  TIP3      6380            0.0000000000
     36489      6516  TIP3      H1             32.7425685994       50.0424112403        1.8421401617  TIP3      6380            0.0000000000
     36490      6516  TIP3      H2             31.9721860044       49.4281590038        0.7378683933  TIP3      6380            0.0000000000
     36491      6517  TIP3      OH2            37.3955783407       54.6456946356        1.4698831868  TIP3      6381            0.0000000000
     36492      6517  TIP3      H1             38.1631888398       54.6989355355        0.8725263211  TIP3      6381            0.0000000000
     36493      6517  TIP3      H2             36.9760891708       55.4973460362        1.2576631391  TIP3      6381            0.0000000000
     36494      6518  TIP3      OH2            26.4673739097       51.3985898559        2.2016063267  TIP3      6382            0.0000000000
     36495      6518  TIP3      H1             26.9419411906       51.4089642526        3.0460450447  TIP3      6382            0.0000000000
     36496      6518  TIP3      H2             26.3423474564       52.3532072140        2.0501602205  TIP3      6382            0.0000000000
     36497      6519  TIP3      OH2            22.2189521160       48.7388771776        2.2273110342  TIP3      6383            0.0000000000
     36498      6519  TIP3      H1             21.8480741435       48.2117014653        2.9734435672  TIP3      6383            0.0000000000
     36499      6519  TIP3      H2             23.1544448611       48.7948102031        2.5155192249  TIP3      6383            0.0000000000
     36500      6520  TIP3      OH2            28.6175938390       53.1386013824        3.1135900715  TIP3      6384            0.0000000000
     36501      6520  TIP3      H1             27.7598605370       53.4779711629        2.8003244834  TIP3      6384            0.0000000000
     36502      6520  TIP3      H2             29.2228420610       53.7764723350        2.6772142902  TIP3      6384            0.0000000000
     36503      6521  TIP3      OH2            26.0486548218       54.1438522669        2.4518031972  TIP3      6385            0.0000000000
     36504      6521  TIP3      H1             25.3262458362       54.5379435646        1.9341455861  TIP3      6385            0.0000000000
     36505      6521  TIP3      H2             25.6509807022       54.1845147968        3.3393655268  TIP3      6385            0.0000000000
     36506      6522  TIP3      OH2            25.1222042958       40.1483686967        2.1310750346  TIP3      6386            0.0000000000
     36507      6522  TIP3      H1             24.7163900148       40.7464675071        2.8061834402  TIP3      6386            0.0000000000
     36508      6522  TIP3      H2             26.0513396263       40.2809206202        2.3629833782  TIP3      6386            0.0000000000
     36509      6523  TIP3      OH2            23.6420288970       51.4270885293        0.9733241064  TIP3      6387            0.0000000000
     36510      6523  TIP3      H1             23.6433668576       51.2967672972        1.9360143989  TIP3      6387            0.0000000000
     36511      6523  TIP3      H2             24.2829527656       50.7424766367        0.7206360690  TIP3      6387            0.0000000000
     36512      6524  TIP3      OH2            20.6632683216       43.7297497735        0.3152467467  TIP3      6388            0.0000000000
     36513      6524  TIP3      H1             21.0006505129       44.6112556434        0.5453485056  TIP3      6388            0.0000000000
     36514      6524  TIP3      H2             19.7190125332       43.9352189658        0.2565013554  TIP3      6388            0.0000000000
     36515      6525  TIP3      OH2            25.4046054338       47.1454770344        1.6739978151  TIP3      6389            0.0000000000
     36516      6525  TIP3      H1             24.8659040552       46.3709773434        1.9089767424  TIP3      6389            0.0000000000
     36517      6525  TIP3      H2             26.2404200580       46.7133509629        1.3674203176  TIP3      6389            0.0000000000
     36518      6526  TIP3      OH2            27.2018292360       45.4941773792        0.6688197538  TIP3      6390            0.0000000000
     36519      6526  TIP3      H1             27.5905989676       45.5015409097       -0.2223260362  TIP3      6390            0.0000000000
     36520      6526  TIP3      H2             27.9197910772       45.0224449427        1.1494737268  TIP3      6390            0.0000000000
     36521      6527  TIP3      OH2            26.8337218855       56.8036969133        1.5393212825  TIP3      6391            0.0000000000
     36522      6527  TIP3      H1             27.6133687865       56.2863231189        1.2701758901  TIP3      6391            0.0000000000
     36523      6527  TIP3      H2             26.2307355395       56.6197128354        0.7956734774  TIP3      6391            0.0000000000
     36524      6528  TIP3      OH2            20.4511410570       50.6071212894        1.2405279119  TIP3      6392            0.0000000000
     36525      6528  TIP3      H1             21.2061947795       50.0256932093        1.4562766416  TIP3      6392            0.0000000000
     36526      6528  TIP3      H2             20.4263540950       50.5206525899        0.2675809761  TIP3      6392            0.0000000000
     36527      6529  TIP3      OH2            37.5452977745       45.5308700310        2.0382920890  TIP3      6393            0.0000000000
     36528      6529  TIP3      H1             37.4268318115       45.8571870370        1.1313014171  TIP3      6393            0.0000000000
     36529      6529  TIP3      H2             37.3677319203       46.3570584220        2.5128452989  TIP3      6393            0.0000000000
     36530      6530  TIP3      OH2            35.6199229874       43.3423726731        0.5665284669  TIP3      6394            0.0000000000
     36531      6530  TIP3      H1             35.7876991740       43.8863620205       -0.2355411460  TIP3      6394            0.0000000000
     36532      6530  TIP3      H2             35.7099651371       42.4569373106        0.1955759034  TIP3      6394            0.0000000000
     36533      6531  TIP3      OH2            37.2005816496       39.5564463871        1.4299055364  TIP3      6395            0.0000000000
     36534      6531  TIP3      H1             36.9878687975       39.9472524941        0.5609425622  TIP3      6395            0.0000000000
     36535      6531  TIP3      H2             37.7835965068       40.2555302294        1.8068936222  TIP3      6395            0.0000000000
     36536      6532  TIP3      OH2            21.0749269127       38.1658627239        2.5232864771  TIP3      6396            0.0000000000
     36537      6532  TIP3      H1             21.8288258001       38.6573131576        2.1186518144  TIP3      6396            0.0000000000
     36538      6532  TIP3      H2             20.8811504973       38.7962275089        3.2312196494  TIP3      6396            0.0000000000
     36539      6533  TIP3      OH2            22.7114434099       39.4905414238        0.9112767528  TIP3      6397            0.0000000000
     36540      6533  TIP3      H1             22.8338528408       39.7675924214       -0.0155004882  TIP3      6397            0.0000000000
     36541      6533  TIP3      H2             23.5685000468       39.7062091185        1.3353534473  TIP3      6397            0.0000000000
     36542      6534  TIP3      OH2            29.9604268553       54.8140939723        1.3796024022  TIP3      6398            0.0000000000
     36543      6534  TIP3      H1             30.9285588515       54.8708910190        1.2528300364  TIP3      6398            0.0000000000
     36544      6534  TIP3      H2             29.6449526355       54.9652014327        0.4682647725  TIP3      6398            0.0000000000
     36545      6535  TIP3      OH2            22.2571134423       55.2571074869        0.3635849529  TIP3      6399            0.0000000000
     36546      6535  TIP3      H1             21.8260135827       55.8133280306        1.0408563919  TIP3      6399            0.0000000000
     36547      6535  TIP3      H2             22.8436632618       54.7036299286        0.8829460944  TIP3      6399            0.0000000000
     36548      6536  TIP3      OH2            48.3872938270       44.3826070396        1.1733683898  TIP3      6400            0.0000000000
     36549      6536  TIP3      H1             49.1334211702       45.0174850605        1.2894826023  TIP3      6400            0.0000000000
     36550      6536  TIP3      H2             48.4893771903       44.1392316333        0.2501177615  TIP3      6400            0.0000000000
     36551      6537  TIP3      OH2            50.4808216778       46.0196348231        1.6962204640  TIP3      6401            0.0000000000
     36552      6537  TIP3      H1             50.3655619183       46.2220651638        2.6365935939  TIP3      6401            0.0000000000
     36553      6537  TIP3      H2             51.3785650895       46.2892742431        1.4366236553  TIP3      6401            0.0000000000
     36554      6538  TIP3      OH2            54.4928859789       38.3414669156        3.2494147183  TIP3      6402            0.0000000000
     36555      6538  TIP3      H1             53.5755132592       38.0838191939        3.1089912896  TIP3      6402            0.0000000000
     36556      6538  TIP3      H2             54.7662006755       38.6360881707        2.3620979569  TIP3      6402            0.0000000000
     36557      6539  TIP3      OH2            55.1944870938       52.7329491769        0.9920961510  TIP3      6403            0.0000000000
     36558      6539  TIP3      H1             55.4907170382       53.5108274945        1.5020866755  TIP3      6403            0.0000000000
     36559      6539  TIP3      H2             56.0220852761       52.2354750462        0.8700566634  TIP3      6403            0.0000000000
     36560      6540  TIP3      OH2            51.4374160467       54.5870932202        1.4080447103  TIP3      6404            0.0000000000
     36561      6540  TIP3      H1             52.1610069314       53.9462045954        1.5432387704  TIP3      6404            0.0000000000
     36562      6540  TIP3      H2             51.1374535060       54.6931265225        2.3274055389  TIP3      6404            0.0000000000
     36563      6541  TIP3      OH2            47.4581858252       40.6909325152        1.0306698054  TIP3      6405            0.0000000000
     36564      6541  TIP3      H1             47.0526337193       41.3319539646        1.6393167958  TIP3      6405            0.0000000000
     36565      6541  TIP3      H2             47.3664536650       39.8548037463        1.4961057062  TIP3      6405            0.0000000000
     36566      6542  TIP3      OH2            38.7250823531       41.4935933564        2.3586160899  TIP3      6406            0.0000000000
     36567      6542  TIP3      H1             39.5272883793       41.4277416752        1.7918674871  TIP3      6406            0.0000000000
     36568      6542  TIP3      H2             38.6347421975       42.4597032315        2.3688212547  TIP3      6406            0.0000000000
     36569      6543  TIP3      OH2            43.4577083826       44.2751253457        1.6236275089  TIP3      6407            0.0000000000
     36570      6543  TIP3      H1             43.1074746597       44.0163459717        0.7446631104  TIP3      6407            0.0000000000
     36571      6543  TIP3      H2             44.3823253218       44.4790790986        1.3774987033  TIP3      6407            0.0000000000
     36572      6544  TIP3      OH2            50.0149434815       41.7157284487        1.4676239661  TIP3      6408            0.0000000000
     36573      6544  TIP3      H1             49.1853930225       41.2604537296        1.2414292026  TIP3      6408            0.0000000000
     36574      6544  TIP3      H2             49.7034286794       42.4970585203        1.9462686922  TIP3      6408            0.0000000000
     36575      6545  TIP3      OH2            48.6035478646       50.1435062014        2.8369045047  TIP3      6409            0.0000000000
     36576      6545  TIP3      H1             48.2651022286       51.0465784044        2.7149292435  TIP3      6409            0.0000000000
     36577      6545  TIP3      H2             48.5163738171       50.0464448013        3.8002924225  TIP3      6409            0.0000000000
     36578      6546  TIP3      OH2            40.7561588062       46.4719602352        0.5419050714  TIP3      6410            0.0000000000
     36579      6546  TIP3      H1             41.1564012063       47.2201106874        1.0332027459  TIP3      6410            0.0000000000
     36580      6546  TIP3      H2             39.8286432647       46.5206086233        0.8275873909  TIP3      6410            0.0000000000
     36581      6547  TIP3      OH2            51.7765777887       49.8039160275        1.0441045472  TIP3      6411            0.0000000000
     36582      6547  TIP3      H1             51.8391907104       50.5973461403        1.5997700509  TIP3      6411            0.0000000000
     36583      6547  TIP3      H2             50.8198597909       49.6203283108        1.0640846028  TIP3      6411            0.0000000000
     36584      6548  TIP3      OH2            56.1736123321       55.0623303250        2.1080362621  TIP3      6412            0.0000000000
     36585      6548  TIP3      H1             56.4571342122       55.4265099627        1.2493454399  TIP3      6412            0.0000000000
     36586      6548  TIP3      H2             55.5246764826       55.7550823954        2.3700702902  TIP3      6412            0.0000000000
     36587      6549  TIP3      OH2            45.3428031517       51.0141671659        2.0982172280  TIP3      6413            0.0000000000
     36588      6549  TIP3      H1             45.7565585167       50.8324043399        2.9538718315  TIP3      6413            0.0000000000
     36589      6549  TIP3      H2             45.0927817545       51.9596800928        2.1943647025  TIP3      6413            0.0000000000
     36590      6550  TIP3      OH2            41.1644338447       48.6409083529        2.1195700486  TIP3      6414            0.0000000000
     36591      6550  TIP3      H1             40.5912661919       48.1823335265        2.7804535035  TIP3      6414            0.0000000000
     36592      6550  TIP3      H2             42.0167322609       48.5956124990        2.6082012326  TIP3      6414            0.0000000000
     36593      6551  TIP3      OH2            47.4375495052       53.2403865383        3.2776930697  TIP3      6415            0.0000000000
     36594      6551  TIP3      H1             46.5205526640       53.3229026898        2.9565006940  TIP3      6415            0.0000000000
     36595      6551  TIP3      H2             47.9327658713       53.7050173711        2.5645493295  TIP3      6415            0.0000000000
     36596      6552  TIP3      OH2            44.8099330134       53.6084766321        2.7276793192  TIP3      6416            0.0000000000
     36597      6552  TIP3      H1             44.8055957092       54.4993481033        2.3241019859  TIP3      6416            0.0000000000
     36598      6552  TIP3      H2             44.7448742354       53.8391968821        3.6640940778  TIP3      6416            0.0000000000
     36599      6553  TIP3      OH2            43.1992291025       40.6063975358        1.8735449888  TIP3      6417            0.0000000000
     36600      6553  TIP3      H1             42.6179006321       41.2628996763        2.2842586405  TIP3      6417            0.0000000000
     36601      6553  TIP3      H2             43.9783582199       40.7742240084        2.4484069825  TIP3      6417            0.0000000000
     36602      6554  TIP3      OH2            42.0745112536       50.9433719107        1.0896415047  TIP3      6418            0.0000000000
     36603      6554  TIP3      H1             42.6229735953       51.1176265903        1.8693607440  TIP3      6418            0.0000000000
     36604      6554  TIP3      H2             41.8577996884       49.9841693409        1.2279999795  TIP3      6418            0.0000000000
     36605      6555  TIP3      OH2            39.9038821607       43.6733458968        0.6187012100  TIP3      6419            0.0000000000
     36606      6555  TIP3      H1             40.3758155996       44.5095813074        0.7618452195  TIP3      6419            0.0000000000
     36607      6555  TIP3      H2             39.1617230377       43.9383089396        0.0585524178  TIP3      6419            0.0000000000
     36608      6556  TIP3      OH2            44.6059453846       47.2461759127        1.6776546262  TIP3      6420            0.0000000000
     36609      6556  TIP3      H1             43.9269742050       46.6409165439        2.0149677493  TIP3      6420            0.0000000000
     36610      6556  TIP3      H2             45.2721886809       46.6054388213        1.3397819221  TIP3      6420            0.0000000000
     36611      6557  TIP3      OH2            45.8368055103       45.1593862235        0.6391863881  TIP3      6421            0.0000000000
     36612      6557  TIP3      H1             45.8668478261       45.2280651288       -0.3326335380  TIP3      6421            0.0000000000
     36613      6557  TIP3      H2             46.7473503974       44.8598785094        0.8666427335  TIP3      6421            0.0000000000
     36614      6558  TIP3      OH2            45.6605215330       56.1105949589        1.9555733761  TIP3      6422            0.0000000000
     36615      6558  TIP3      H1             46.5287543341       55.9005784228        1.5815544777  TIP3      6422            0.0000000000
     36616      6558  TIP3      H2             45.1975950121       56.3595311069        1.1370792442  TIP3      6422            0.0000000000
     36617      6559  TIP3      OH2            39.3762449776       51.0520379334        1.4694624841  TIP3      6423            0.0000000000
     36618      6559  TIP3      H1             40.3312835637       51.2437715862        1.3378596343  TIP3      6423            0.0000000000
     36619      6559  TIP3      H2             39.1999327745       50.5111553888        0.6882875989  TIP3      6423            0.0000000000
     36620      6560  TIP3      OH2            56.5129619396       45.6270776391        1.9783925222  TIP3      6424            0.0000000000
     36621      6560  TIP3      H1             55.9967018532       45.3838735381        1.1888529345  TIP3      6424            0.0000000000
     36622      6560  TIP3      H2             56.0277023981       46.4236430934        2.2514436132  TIP3      6424            0.0000000000
     36623      6561  TIP3      OH2            54.6731574086       43.7479061335        0.6542608934  TIP3      6425            0.0000000000
     36624      6561  TIP3      H1             54.8146869704       43.9313170057       -0.3050142994  TIP3      6425            0.0000000000
     36625      6561  TIP3      H2             54.6203530174       42.7870084085        0.6180662592  TIP3      6425            0.0000000000
     36626      6562  TIP3      OH2            55.8280296450       40.1411298341        1.1054437744  TIP3      6426            0.0000000000
     36627      6562  TIP3      H1             56.1930584109       39.4725667774        0.4982338453  TIP3      6426            0.0000000000
     36628      6562  TIP3      H2             56.6080759632       40.7026588559        1.2797669008  TIP3      6426            0.0000000000
     36629      6563  TIP3      OH2            39.9163915687       38.0885060188        2.1698091684  TIP3      6427            0.0000000000
     36630      6563  TIP3      H1             40.2925309478       38.8138501242        1.6211602260  TIP3      6427            0.0000000000
     36631      6563  TIP3      H2             39.7751468043       38.6138697119        2.9711379604  TIP3      6427            0.0000000000
     36632      6564  TIP3      OH2            40.7536218089       40.2727107343        0.7964901670  TIP3      6428            0.0000000000
     36633      6564  TIP3      H1             40.9532073308       40.1229005365       -0.1570765743  TIP3      6428            0.0000000000
     36634      6564  TIP3      H2             41.6711357149       40.3935064329        1.1216424033  TIP3      6428            0.0000000000
     36635      6565  TIP3      OH2            48.7107217215       54.9080739922        1.4427738930  TIP3      6429            0.0000000000
     36636      6565  TIP3      H1             49.6713823982       54.9187137068        1.2481835656  TIP3      6429            0.0000000000
     36637      6565  TIP3      H2             48.3576172591       55.0787185003        0.5456756993  TIP3      6429            0.0000000000
     36638      6566  TIP3      OH2            41.0880677122       55.0053132489        0.7869598510  TIP3      6430            0.0000000000
     36639      6566  TIP3      H1             40.5149576956       55.6824797156        1.2117049066  TIP3      6430            0.0000000000
     36640      6566  TIP3      H2             41.9396672219       55.1473079940        1.2080786928  TIP3      6430            0.0000000000
     36641      6567  TIP3      OH2            57.6652818320       42.1335107567        1.8052285923  TIP3      6431            0.0000000000
     36642      6567  TIP3      H1             58.4866117485       41.9725871841        2.2874372954  TIP3      6431            0.0000000000
     36643      6567  TIP3      H2             57.2889440964       42.9120708316        2.2456584063  TIP3      6431            0.0000000000
     36644      6568  TIP3      OH2            62.1336582794       43.4197150638        1.3399811438  TIP3      6432            0.0000000000
     36645      6568  TIP3      H1             61.2510030304       43.8063161650        1.2033787896  TIP3      6432            0.0000000000
     36646      6568  TIP3      H2             62.4981603028       43.5456723058        0.4343237876  TIP3      6432            0.0000000000
     36647      6569  TIP3      OH2            58.9156779434       46.2596503077        0.7285325681  TIP3      6433            0.0000000000
     36648      6569  TIP3      H1             59.2855691835       47.0161509520        1.2537268021  TIP3      6433            0.0000000000
     36649      6569  TIP3      H2             58.0218162984       46.2102643100        1.1333926567  TIP3      6433            0.0000000000
     36650      6570  TIP3      OH2            63.4393593786       51.1469488834        2.1059727036  TIP3      6434            0.0000000000
     36651      6570  TIP3      H1             63.3990389345       50.9532885318        3.0525778965  TIP3      6434            0.0000000000
     36652      6570  TIP3      H2             63.4293773308       52.1334892579        2.1543111837  TIP3      6434            0.0000000000
     36653      6571  TIP3      OH2            59.6698715787       48.1970836274        2.3324789597  TIP3      6435            0.0000000000
     36654      6571  TIP3      H1             59.4325015533       47.8756694793        3.2251987446  TIP3      6435            0.0000000000
     36655      6571  TIP3      H2             60.5190831278       48.6315377941        2.5395667439  TIP3      6435            0.0000000000
     36656      6572  TIP3      OH2            63.3137504480       53.7907989023        2.6807983131  TIP3      6436            0.0000000000
     36657      6572  TIP3      H1             63.4929305959       54.5185944502        2.0454246012  TIP3      6436            0.0000000000
     36658      6572  TIP3      H2             63.4932485182       54.2327685930        3.5252428045  TIP3      6436            0.0000000000
     36659      6573  TIP3      OH2            61.8886527165       40.9268125959        2.1162164175  TIP3      6437            0.0000000000
     36660      6573  TIP3      H1             62.0298311232       41.8923187649        1.9465993063  TIP3      6437            0.0000000000
     36661      6573  TIP3      H2             62.5882123806       40.7561663042        2.7822052989  TIP3      6437            0.0000000000
     36662      6574  TIP3      OH2            60.7222812349       51.1025150342        1.6001595528  TIP3      6438            0.0000000000
     36663      6574  TIP3      H1             61.6050136613       50.9413481023        1.9755460753  TIP3      6438            0.0000000000
     36664      6574  TIP3      H2             60.9395031599       51.4059646040        0.7078886819  TIP3      6438            0.0000000000
     36665      6575  TIP3      OH2            59.5282909810       43.6950145840        0.4476904374  TIP3      6439            0.0000000000
     36666      6575  TIP3      H1             59.2062420995       44.6106274079        0.6195331104  TIP3      6439            0.0000000000
     36667      6575  TIP3      H2             58.7481528069       43.1782495154        0.7265289635  TIP3      6439            0.0000000000
     36668      6576  TIP3      OH2            63.4091164906       46.8166637899        1.8418588052  TIP3      6440            0.0000000000
     36669      6576  TIP3      H1             63.4518188624       46.4273161970        2.7335621551  TIP3      6440            0.0000000000
     36670      6576  TIP3      H2             64.0947310926       46.3073702685        1.3677308903  TIP3      6440            0.0000000000
     36671      6577  TIP3      OH2            65.2393242105       45.5176066998       91.2728964120  TIP3      6441            0.0000000000
     36672      6577  TIP3      H1             64.9582210243       45.2261954669       90.3903185452  TIP3      6441            0.0000000000
     36673      6577  TIP3      H2             66.1213037545       45.8902513149       91.1053514435  TIP3      6441            0.0000000000
     36674      6578  TIP3      OH2            64.3152342759       55.7378871545        1.1060484970  TIP3      6442            0.0000000000
     36675      6578  TIP3      H1             65.2376683575       55.5674768346        1.3276568980  TIP3      6442            0.0000000000
     36676      6578  TIP3      H2             64.3858255938       55.8796572297        0.1331179480  TIP3      6442            0.0000000000
     36677      6579  TIP3      OH2            58.0918676916       50.6402956581        1.4916377019  TIP3      6443            0.0000000000
     36678      6579  TIP3      H1             59.0782147482       50.6612093125        1.5625044360  TIP3      6443            0.0000000000
     36679      6579  TIP3      H2             58.0113103361       50.5474459720        0.5204985746  TIP3      6443            0.0000000000
     36680      6580  TIP3      OH2            58.3070136189       38.1124605298        2.2782254228  TIP3      6444            0.0000000000
     36681      6580  TIP3      H1             58.9621305798       38.8063871873        2.0150581657  TIP3      6444            0.0000000000
     36682      6580  TIP3      H2             58.7916409075       37.6909833315        3.0254073543  TIP3      6444            0.0000000000
     36683      6581  TIP3      OH2            59.8637750868       39.6873202909        0.9150306496  TIP3      6445            0.0000000000
     36684      6581  TIP3      H1             60.0637425710       39.7497620635       -0.0449695272  TIP3      6445            0.0000000000
     36685      6581  TIP3      H2             60.6460195117       40.0973412725        1.3522563161  TIP3      6445            0.0000000000
     36686      6582  TIP3      OH2            60.3419032724       55.6882761680        0.3395154571  TIP3      6446            0.0000000000
     36687      6582  TIP3      H1             59.5899217185       55.1635901184        0.6492460585  TIP3      6446            0.0000000000
     36688      6582  TIP3      H2             61.0288200817       55.4356981847        0.9651878824  TIP3      6446            0.0000000000
     36689      6583  TIP3      OH2            11.0206043440       63.7475613517        1.0178841944  TIP3      6447            0.0000000000
     36690      6583  TIP3      H1             11.8533518780       64.0764853519        1.4163886476  TIP3      6447            0.0000000000
     36691      6583  TIP3      H2             11.1206065791       64.0085043118        0.0764203147  TIP3      6447            0.0000000000
     36692      6584  TIP3      OH2            13.5030811328       65.0004149638        2.0531059361  TIP3      6448            0.0000000000
     36693      6584  TIP3      H1             13.1964664982       65.8123633740        2.4731494432  TIP3      6448            0.0000000000
     36694      6584  TIP3      H2             14.2035428740       65.3010794771        1.4572951219  TIP3      6448            0.0000000000
     36695      6585  TIP3      OH2            16.8476757456       56.8848164777        3.1160365618  TIP3      6449            0.0000000000
     36696      6585  TIP3      H1             15.9717522077       56.8048937146        2.7183770070  TIP3      6449            0.0000000000
     36697      6585  TIP3      H2             17.0978006185       57.8058409780        2.9053821666  TIP3      6449            0.0000000000
     36698      6586  TIP3      OH2            10.0225305983       59.2490180452        1.2626709765  TIP3      6450            0.0000000000
     36699      6586  TIP3      H1              9.2944296015       59.7006126120        1.7210945165  TIP3      6450            0.0000000000
     36700      6586  TIP3      H2              9.9861692765       58.3368370031        1.5845396647  TIP3      6450            0.0000000000
     36701      6587  TIP3      OH2             0.9525913749       60.5286577808        2.1705561390  TIP3      6451            0.0000000000
     36702      6587  TIP3      H1              1.6775651271       60.3736036582        1.5339460044  TIP3      6451            0.0000000000
     36703      6587  TIP3      H2              0.2983980573       60.9163612318        1.5796803865  TIP3      6451            0.0000000000
     36704      6588  TIP3      OH2             5.5584382206       63.2300469672        1.6827237300  TIP3      6452            0.0000000000
     36705      6588  TIP3      H1              5.1624800718       63.0989795176        0.8035179854  TIP3      6452            0.0000000000
     36706      6588  TIP3      H2              6.4996926829       63.2256429698        1.4418672339  TIP3      6452            0.0000000000
     36707      6589  TIP3      OH2            12.3441913123       60.6411532959        1.5905046941  TIP3      6453            0.0000000000
     36708      6589  TIP3      H1             11.5588964829       60.1190157388        1.3420144646  TIP3      6453            0.0000000000
     36709      6589  TIP3      H2             11.9459036552       61.5164287322        1.7081468140  TIP3      6453            0.0000000000
     36710      6590  TIP3      OH2             2.4078993389       64.1029480654        1.3937173372  TIP3      6454            0.0000000000
     36711      6590  TIP3      H1              3.0610837437       64.2896062243        2.0763687561  TIP3      6454            0.0000000000
     36712      6590  TIP3      H2              1.9809199800       64.9710302700        1.2799648432  TIP3      6454            0.0000000000
     36713      6591  TIP3      OH2             5.2539287022       59.3113176839        2.0428309097  TIP3      6455            0.0000000000
     36714      6591  TIP3      H1              4.9137408280       60.1254462196        2.4525355609  TIP3      6455            0.0000000000
     36715      6591  TIP3      H2              6.1053746363       59.3209034892        2.5206576057  TIP3      6455            0.0000000000
     36716      6592  TIP3      OH2             2.1094598955       61.9249692191       -0.0460143847  TIP3      6456            0.0000000000
     36717      6592  TIP3      H1              2.3762174272       62.3697813197        0.7843357655  TIP3      6456            0.0000000000
     36718      6592  TIP3      H2              1.5126147340       62.6204832781       -0.3693179723  TIP3      6456            0.0000000000
     36719      6593  TIP3      OH2             6.5565274766       66.1833208812        1.3010546660  TIP3      6457            0.0000000000
     36720      6593  TIP3      H1              6.0841041231       65.7081966207        1.9901742886  TIP3      6457            0.0000000000
     36721      6593  TIP3      H2              7.3681111662       65.6342838697        1.2444161130  TIP3      6457            0.0000000000
     36722      6594  TIP3      OH2             8.3943216189       64.3234419564        1.0557132117  TIP3      6458            0.0000000000
     36723      6594  TIP3      H1              8.3989799131       64.0306755724        0.1142052926  TIP3      6458            0.0000000000
     36724      6594  TIP3      H2              9.3532377805       64.1706671643        1.2155062639  TIP3      6458            0.0000000000
     36725      6595  TIP3      OH2            18.6079998884       64.5766855253        1.5264345693  TIP3      6459            0.0000000000
     36726      6595  TIP3      H1             17.8508753007       64.0199202680        1.2563208040  TIP3      6459            0.0000000000
     36727      6595  TIP3      H2             18.1981076169       65.1947273644        2.1646411811  TIP3      6459            0.0000000000
     36728      6596  TIP3      OH2            16.8870588587       62.6402568716       91.5018261151  TIP3      6460            0.0000000000
     36729      6596  TIP3      H1             16.9821850779       62.9079458329       90.5554512594  TIP3      6460            0.0000000000
     36730      6596  TIP3      H2             16.8917496955       61.6801110363       91.4224039953  TIP3      6460            0.0000000000
     36731      6597  TIP3      OH2            18.0046582344       58.7707753381        0.9149453299  TIP3      6461            0.0000000000
     36732      6597  TIP3      H1             18.1415057544       59.0664945323       -0.0086312983  TIP3      6461            0.0000000000
     36733      6597  TIP3      H2             18.6314150800       59.3492760494        1.3957664312  TIP3      6461            0.0000000000
     36734      6598  TIP3      OH2             2.1187846693       56.6879099417        2.2173677257  TIP3      6462            0.0000000000
     36735      6598  TIP3      H1              2.4130397901       57.4954513677        1.7371748411  TIP3      6462            0.0000000000
     36736      6598  TIP3      H2              1.7131982802       57.0986065415        3.0022462491  TIP3      6462            0.0000000000
     36737      6599  TIP3      OH2             2.9483802576       58.8796021906        0.7952384048  TIP3      6463            0.0000000000
     36738      6599  TIP3      H1              3.3809832177       58.7000280848       -0.0742320058  TIP3      6463            0.0000000000
     36739      6599  TIP3      H2              3.7517133018       59.1307332662        1.2969092464  TIP3      6463            0.0000000000
     36740      6600  TIP3      OH2            29.7217792027       63.8825925797        0.7328275320  TIP3      6464            0.0000000000
     36741      6600  TIP3      H1             30.5687553388       64.2717903195        1.0686099117  TIP3      6464            0.0000000000
     36742      6600  TIP3      H2             29.9471480839       62.9559705586        0.5719095165  TIP3      6464            0.0000000000
     36743      6601  TIP3      OH2            31.9084357273       65.1370528196        1.6343806590  TIP3      6465            0.0000000000
     36744      6601  TIP3      H1             31.8169143058       65.4704947020        2.5386674299  TIP3      6465            0.0000000000
     36745      6601  TIP3      H2             32.6813889759       65.5900807837        1.2757358155  TIP3      6465            0.0000000000
     36746      6602  TIP3      OH2            35.6942910671       56.7753677544        3.1742228626  TIP3      6466            0.0000000000
     36747      6602  TIP3      H1             34.8231754166       56.7497310988        2.7771136382  TIP3      6466            0.0000000000
     36748      6602  TIP3      H2             36.1832285231       57.3416571959        2.5470839952  TIP3      6466            0.0000000000
     36749      6603  TIP3      OH2            28.7846344435       59.3597085516        1.3085889677  TIP3      6467            0.0000000000
     36750      6603  TIP3      H1             28.1366876424       59.5851012881        1.9940416302  TIP3      6467            0.0000000000
     36751      6603  TIP3      H2             28.9505322091       58.4117753542        1.4246111459  TIP3      6467            0.0000000000
     36752      6604  TIP3      OH2            19.9121407877       60.4018186462        2.1803038745  TIP3      6468            0.0000000000
     36753      6604  TIP3      H1             20.6347125610       60.3458107697        1.5207280056  TIP3      6468            0.0000000000
     36754      6604  TIP3      H2             19.7442433318       61.3565569388        2.1491052071  TIP3      6468            0.0000000000
     36755      6605  TIP3      OH2            24.4618336459       63.2025033294        1.5086583968  TIP3      6469            0.0000000000
     36756      6605  TIP3      H1             23.7765140386       63.5945920007        0.9433837946  TIP3      6469            0.0000000000
     36757      6605  TIP3      H2             25.2725967217       63.3214598544        0.9805702037  TIP3      6469            0.0000000000
     36758      6606  TIP3      OH2            31.4287826715       60.6591318826        1.5238677516  TIP3      6470            0.0000000000
     36759      6606  TIP3      H1             30.5376465532       60.3749309646        1.2496888968  TIP3      6470            0.0000000000
     36760      6606  TIP3      H2             31.2730567270       61.5214906186        1.9249536245  TIP3      6470            0.0000000000
     36761      6607  TIP3      OH2            21.5083459763       64.4437917645        1.4233990116  TIP3      6471            0.0000000000
     36762      6607  TIP3      H1             21.9168800159       65.3212544465        1.3148007680  TIP3      6471            0.0000000000
     36763      6607  TIP3      H2             20.5815461574       64.7168446483        1.5712730714  TIP3      6471            0.0000000000
     36764      6608  TIP3      OH2            24.3082052126       59.2114173700        2.3096714361  TIP3      6472            0.0000000000
     36765      6608  TIP3      H1             24.0801682050       60.1427114914        2.5088338511  TIP3      6472            0.0000000000
     36766      6608  TIP3      H2             25.2406629995       59.2503230646        2.5753787582  TIP3      6472            0.0000000000
     36767      6609  TIP3      OH2            20.9534451379       62.1275934833        0.2873131252  TIP3      6473            0.0000000000
     36768      6609  TIP3      H1             21.2624829595       62.8964777469        0.8322868182  TIP3      6473            0.0000000000
     36769      6609  TIP3      H2             20.1650831687       62.5378709522       -0.1063212318  TIP3      6473            0.0000000000
     36770      6610  TIP3      OH2            25.6795334258       66.4571735734        1.4710334452  TIP3      6474            0.0000000000
     36771      6610  TIP3      H1             25.0516949477       65.9770319634        2.0244250085  TIP3      6474            0.0000000000
     36772      6610  TIP3      H2             26.3634064934       65.7731431250        1.3201488889  TIP3      6474            0.0000000000
     36773      6611  TIP3      OH2            27.1287798530       64.2592561212        0.6376871339  TIP3      6475            0.0000000000
     36774      6611  TIP3      H1             27.0511847343       64.0614328798       -0.3083720190  TIP3      6475            0.0000000000
     36775      6611  TIP3      H2             28.1127854260       64.1765327106        0.7261604109  TIP3      6475            0.0000000000
     36776      6612  TIP3      OH2            37.2311565165       64.5455456611        1.5662367262  TIP3      6476            0.0000000000
     36777      6612  TIP3      H1             36.3139900857       64.7730077650        1.3441306470  TIP3      6476            0.0000000000
     36778      6612  TIP3      H2             37.4094035409       65.1528791471        2.3000115634  TIP3      6476            0.0000000000
     36779      6613  TIP3      OH2            35.5671621656       62.4782007165       91.4385169732  TIP3      6477            0.0000000000
     36780      6613  TIP3      H1             35.7577964992       62.7345077888       90.5082529905  TIP3      6477            0.0000000000
     36781      6613  TIP3      H2             35.7701592630       61.5385331521       91.4405704593  TIP3      6477            0.0000000000
     36782      6614  TIP3      OH2            37.0517207428       58.5724923865        0.9929149551  TIP3      6478            0.0000000000
     36783      6614  TIP3      H1             37.4586782013       58.8263848190        0.1387529530  TIP3      6478            0.0000000000
     36784      6614  TIP3      H2             37.5946566424       59.1164432217        1.5995849807  TIP3      6478            0.0000000000
     36785      6615  TIP3      OH2            20.8884333307       56.6419942875        2.3313593490  TIP3      6479            0.0000000000
     36786      6615  TIP3      H1             21.5466983682       57.3338310446        2.0594812012  TIP3      6479            0.0000000000
     36787      6615  TIP3      H2             20.1607560478       57.2066034381        2.6334307658  TIP3      6479            0.0000000000
     36788      6616  TIP3      OH2            22.1342279567       58.5019339276        0.8771284592  TIP3      6480            0.0000000000
     36789      6616  TIP3      H1             22.3191527722       58.6427135526       -0.0807102420  TIP3      6480            0.0000000000
     36790      6616  TIP3      H2             22.9638405744       58.7905581007        1.3136238369  TIP3      6480            0.0000000000
     36791      6617  TIP3      OH2            48.5202982651       63.6054262466        1.0434523164  TIP3      6481            0.0000000000
     36792      6617  TIP3      H1             49.2509169968       64.2234327327        1.2822426075  TIP3      6481            0.0000000000
     36793      6617  TIP3      H2             48.9661639536       62.7515898951        1.1077522850  TIP3      6481            0.0000000000
     36794      6618  TIP3      OH2            50.5160497104       65.3840595032        1.6705490670  TIP3      6482            0.0000000000
     36795      6618  TIP3      H1             50.7213536632       65.6905173311        2.5674005463  TIP3      6482            0.0000000000
     36796      6618  TIP3      H2             51.3214846873       65.6166926732        1.1949202457  TIP3      6482            0.0000000000
     36797      6619  TIP3      OH2            54.6893309594       57.1824604538        2.7600753724  TIP3      6483            0.0000000000
     36798      6619  TIP3      H1             53.8137568571       56.8242684861        2.5742304921  TIP3      6483            0.0000000000
     36799      6619  TIP3      H2             54.7515794975       57.8757972789        2.0653844632  TIP3      6483            0.0000000000
     36800      6620  TIP3      OH2            47.3578100338       59.0852516927        1.1236714741  TIP3      6484            0.0000000000
     36801      6620  TIP3      H1             46.6946674063       59.4977150646        1.7024230084  TIP3      6484            0.0000000000
     36802      6620  TIP3      H2             47.6669265390       58.3139388790        1.6238552982  TIP3      6484            0.0000000000
     36803      6621  TIP3      OH2            38.7388019034       60.3263334089        2.2585460855  TIP3      6485            0.0000000000
     36804      6621  TIP3      H1             39.5803019759       60.0120725029        1.8367628493  TIP3      6485            0.0000000000
     36805      6621  TIP3      H2             38.5555825835       61.0529469945        1.6400019056  TIP3      6485            0.0000000000
     36806      6622  TIP3      OH2            42.6863709731       63.1023985315        1.4073446677  TIP3      6486            0.0000000000
     36807      6622  TIP3      H1             41.9481233637       63.7125373797        1.2010527306  TIP3      6486            0.0000000000
     36808      6622  TIP3      H2             42.9129606630       62.7463475143        0.5206752022  TIP3      6486            0.0000000000
     36809      6623  TIP3      OH2            49.8766325007       60.5575976501        1.5904311040  TIP3      6487            0.0000000000
     36810      6623  TIP3      H1             49.0439256262       60.2129283297        1.2439160528  TIP3      6487            0.0000000000
     36811      6623  TIP3      H2             49.6397383349       60.8153481548        2.4923570588  TIP3      6487            0.0000000000
     36812      6624  TIP3      OH2            40.5434397220       64.6915611008        1.0649888888  TIP3      6488            0.0000000000
     36813      6624  TIP3      H1             40.9980759387       65.5646080089        1.1599544055  TIP3      6488            0.0000000000
     36814      6624  TIP3      H2             39.7232259960       64.8637712847        1.5554931716  TIP3      6488            0.0000000000
     36815      6625  TIP3      OH2            42.8925929255       59.2651341911        2.1558665313  TIP3      6489            0.0000000000
     36816      6625  TIP3      H1             42.2548180925       59.9161096368        2.4955454341  TIP3      6489            0.0000000000
     36817      6625  TIP3      H2             43.6599488194       59.5402398809        2.7014982614  TIP3      6489            0.0000000000
     36818      6626  TIP3      OH2            39.7155346889       62.2702437648        0.1166151620  TIP3      6490            0.0000000000
     36819      6626  TIP3      H1             40.2208440107       63.0259823668        0.4850883477  TIP3      6490            0.0000000000
     36820      6626  TIP3      H2             38.8125367184       62.5934211266        0.2180922723  TIP3      6490            0.0000000000
     36821      6627  TIP3      OH2            44.4503806283       66.3624692625        1.6565962593  TIP3      6491            0.0000000000
     36822      6627  TIP3      H1             44.2013015897       66.1024362900        2.5489593163  TIP3      6491            0.0000000000
     36823      6627  TIP3      H2             44.9244603257       65.5409883297        1.3925686968  TIP3      6491            0.0000000000
     36824      6628  TIP3      OH2            45.8206736069       64.1210106372        1.0445779145  TIP3      6492            0.0000000000
     36825      6628  TIP3      H1             45.6710566838       63.7743824637        0.1540844472  TIP3      6492            0.0000000000
     36826      6628  TIP3      H2             46.8024053833       64.0291207934        1.0979909999  TIP3      6492            0.0000000000
     36827      6629  TIP3      OH2            56.1980713542       64.5367909689        1.4783114366  TIP3      6493            0.0000000000
     36828      6629  TIP3      H1             55.3755841586       64.1537998126        1.1140629355  TIP3      6493            0.0000000000
     36829      6629  TIP3      H2             55.8403278621       65.1945892694        2.1148859420  TIP3      6493            0.0000000000
     36830      6630  TIP3      OH2            54.2557703299       62.6457899806       91.4002087144  TIP3      6494            0.0000000000
     36831      6630  TIP3      H1             54.1282254294       62.7951671758       90.4376356526  TIP3      6494            0.0000000000
     36832      6630  TIP3      H2             54.7583202762       61.8178332666       91.4185422300  TIP3      6494            0.0000000000
     36833      6631  TIP3      OH2            55.4460742968       59.1645722739        0.9139406672  TIP3      6495            0.0000000000
     36834      6631  TIP3      H1             55.7164462463       59.5027220353        0.0364315650  TIP3      6495            0.0000000000
     36835      6631  TIP3      H2             56.2222847689       59.4385084342        1.4453933291  TIP3      6495            0.0000000000
     36836      6632  TIP3      OH2            39.7948222839       57.0336522304        2.0071573145  TIP3      6496            0.0000000000
     36837      6632  TIP3      H1             40.6960712055       57.3081338383        2.2354723241  TIP3      6496            0.0000000000
     36838      6632  TIP3      H2             39.3214355886       57.2682449609        2.8148053594  TIP3      6496            0.0000000000
     36839      6633  TIP3      OH2            40.7236465341       59.4318216477        0.7211356108  TIP3      6497            0.0000000000
     36840      6633  TIP3      H1             40.7780354757       58.9117828682       -0.1061826394  TIP3      6497            0.0000000000
     36841      6633  TIP3      H2             41.6397986841       59.3358485188        1.0502286165  TIP3      6497            0.0000000000
     36842      6634  TIP3      OH2            57.6249701707       60.2922817857        2.1268493863  TIP3      6498            0.0000000000
     36843      6634  TIP3      H1             57.9938010832       59.7352537033        2.8202675989  TIP3      6498            0.0000000000
     36844      6634  TIP3      H2             58.0480853717       61.1326023116        2.3889577762  TIP3      6498            0.0000000000
     36845      6635  TIP3      OH2            62.1113090273       63.5169970087        1.4252372218  TIP3      6499            0.0000000000
     36846      6635  TIP3      H1             61.2135719577       63.7821068677        1.1324664252  TIP3      6499            0.0000000000
     36847      6635  TIP3      H2             62.4371969362       63.0592442193        0.6312671303  TIP3      6499            0.0000000000
     36848      6636  TIP3      OH2            59.5442890800       64.6219507622        1.0123585554  TIP3      6500            0.0000000000
     36849      6636  TIP3      H1             59.8889515048       65.4144305505        1.4520716912  TIP3      6500            0.0000000000
     36850      6636  TIP3      H2             58.6119290931       64.6614616538        1.2841939187  TIP3      6500            0.0000000000
     36851      6637  POT       POT            28.5421372040        0.0182631410       84.3358791635  IONS      1               0.0000000000
     36852      6638  POT       POT            28.4105990028        8.6634924636       83.7558542647  IONS      2               0.0000000000
     36853      6639  POT       POT            17.6916087768       41.6128708941       12.4592252386  IONS      3               0.0000000000
     36854      6640  POT       POT            11.3115453930       28.4369064867       79.9816975992  IONS      4               0.0000000000
     36855      6641  POT       POT            66.1887373884       20.8791338037       72.1139287406  IONS      5               0.0000000000
     36856      6642  POT       POT            48.1409237744       13.0864828012       16.5064133229  IONS      6               0.0000000000
     36857      6643  POT       POT            34.1179005634        0.8823648820       73.0621375378  IONS      7               0.0000000000
     36858      6644  POT       POT            56.6473360044        4.2068777642       70.3247838133  IONS      8               0.0000000000
     36859      6645  POT       POT            35.9546597479       51.7645305583       13.8137470048  IONS      9               0.0000000000
     36860      6646  POT       POT            28.1445918134        7.7329669987        8.8071212145  IONS      10              0.0000000000
     36861      6647  POT       POT            28.6421436162       10.6302914782       16.3859305398  IONS      11              0.0000000000
     36862      6648  POT       POT            50.3099169288       48.3005043290       12.3678741988  IONS      12              0.0000000000
     36863      6649  POT       POT            33.4016860579       21.9669683278       68.8924517365  IONS      13              0.0000000000
     36864      6650  POT       POT            14.8397883609       59.4565260550       86.1039922109  IONS      14              0.0000000000
     36865      6651  POT       POT             2.9977330751       31.0185101467       85.1402058754  IONS      15              0.0000000000
     36866      6652  POT       POT             3.2573990787       29.9469942554       10.8515087988  IONS      16              0.0000000000
     36867      6653  POT       POT            47.1509914620       29.0754059761       84.9128913278  IONS      17              0.0000000000
     36868      6654  POT       POT            42.8072755296       26.4053487777        9.6368892905  IONS      18              0.0000000000
     36869      6655  POT       POT            64.7530012779        7.4910822209       14.3352311084  IONS      19              0.0000000000
     36870      6656  POT       POT             6.4426662309       17.3936447733       80.8381845979  IONS      20              0.0000000000
     36871      6657  POT       POT            15.3034502017       56.1602780711        7.8144494624  IONS      21              0.0000000000
     36872      6658  POT       POT             0.5246529723       52.1337997657       67.2301145454  IONS      22              0.0000000000
     36873      6659  POT       POT            43.3404067383       19.5041196033       70.7634263561  IONS      23              0.0000000000
     36874      6660  POT       POT            28.9254428139       41.3651603241       16.0756481684  IONS      24              0.0000000000
     36875      6661  POT       POT             4.9349336418       37.9522350469        5.6121715356  IONS      25              0.0000000000
     36876      6662  POT       POT            27.8562520131       33.0664494906       73.4950001990  IONS      26              0.0000000000
     36877      6663  POT       POT            55.3759653363       41.9953176609       74.1077043411  IONS      27              0.0000000000
     36878      6664  POT       POT            56.9291754626       26.5724039050       22.5666923691  IONS      28              0.0000000000
     36879      6665  POT       POT            65.4410420346       25.1715496115       23.6936895640  IONS      29              0.0000000000
     36880      6666  POT       POT             1.1351176669       31.1799914423       71.7818813426  IONS      30              0.0000000000
     36881      6667  POT       POT            52.4308600481       63.4164167061       86.8052464873  IONS      31              0.0000000000
     36882      6668  POT       POT             6.5431930698       33.1553473484        3.9469912458  IONS      32              0.0000000000
     36883      6669  POT       POT            35.1710315857       54.1743355360        5.4383693182  IONS      33              0.0000000000
     36884      6670  POT       POT            47.4192892318       47.5695675190       72.8089030696  IONS      34              0.0000000000
     36885      6671  POT       POT            26.4986524079       58.8078171807        5.2504486773  IONS      35              0.0000000000
     36886      6672  POT       POT            62.0034045836       42.5772524979       21.7998155404  IONS      36              0.0000000000
     36887      6673  POT       POT            53.1507210700       55.3867182480       23.0884782341  IONS      37              0.0000000000
     36888      6674  POT       POT            14.3570662530        2.1927782664        9.5680625099  IONS      38              0.0000000000
     36889      6675  POT       POT            53.4431668314       66.0359434015       27.1572656982  IONS      39              0.0000000000
     36890      6676  CLA       CLA            63.8560095661        2.0935848056       70.9306527551  IONS      40              0.0000000000
     36891      6677  CLA       CLA            15.5668394941       42.4854120300       15.4536907176  IONS      41              0.0000000000
     36892      6678  CLA       CLA            31.3102601588       34.9438289324       83.0672291216  IONS      42              0.0000000000
     36893      6679  CLA       CLA            50.6445835382       32.8908439606       69.2102401180  IONS      43              0.0000000000
     36894      6680  CLA       CLA            35.3591624171       38.9074943046       84.3153834561  IONS      44              0.0000000000
     36895      6681  CLA       CLA            54.5965139854       49.9938561871       76.6519472576  IONS      45              0.0000000000
     36896      6682  CLA       CLA            27.1516169471        6.3656336881       19.5941533248  IONS      46              0.0000000000
     36897      6683  CLA       CLA             4.5363531625        4.1807994729       85.2052622508  IONS      47              0.0000000000
     36898      6684  CLA       CLA             4.0600867138       64.8650677515       10.7574379561  IONS      48              0.0000000000
     36899      6685  CLA       CLA            36.3403043699       57.2696459854       75.8273147310  IONS      49              0.0000000000
     36900      6686  CLA       CLA             9.8241945526       35.9549297963       74.0226460242  IONS      50              0.0000000000
     36901      6687  CLA       CLA            48.8214863882       49.2069081564       74.9688744559  IONS      51              0.0000000000
     36902      6688  CLA       CLA            41.7621015393       24.2853867673       77.8048652790  IONS      52              0.0000000000
     36903      6689  CLA       CLA            14.5964166984       19.7964817406       23.5787930280  IONS      53              0.0000000000
